 Entering Gaussian System, Link 0=g09
 Initial command:
 /home/apps/iiser/g09/g09/l1.exe "/scratch/aloke/Gau-19804.inp" -scrdir="/scratch/aloke/"
 Entering Link 1 = /home/apps/iiser/g09/g09/l1.exe PID=     19805.
  
 Copyright (c) 1988,1990,1992,1993,1995,1998,2003,2009,2013,
            Gaussian, Inc.  All Rights Reserved.
  
 This is part of the Gaussian(R) 09 program.  It is based on
 the Gaussian(R) 03 system (copyright 2003, Gaussian, Inc.),
 the Gaussian(R) 98 system (copyright 1998, Gaussian, Inc.),
 the Gaussian(R) 94 system (copyright 1995, Gaussian, Inc.),
 the Gaussian 92(TM) system (copyright 1992, Gaussian, Inc.),
 the Gaussian 90(TM) system (copyright 1990, Gaussian, Inc.),
 the Gaussian 88(TM) system (copyright 1988, Gaussian, Inc.),
 the Gaussian 86(TM) system (copyright 1986, Carnegie Mellon
 University), and the Gaussian 82(TM) system (copyright 1983,
 Carnegie Mellon University). Gaussian is a federally registered
 trademark of Gaussian, Inc.
  
 This software contains proprietary and confidential information,
 including trade secrets, belonging to Gaussian, Inc.
  
 This software is provided under written license and may be
 used, copied, transmitted, or stored only in accord with that
 written license.
  
 The following legend is applicable only to US Government
 contracts under FAR:
  
                    RESTRICTED RIGHTS LEGEND
  
 Use, reproduction and disclosure by the US Government is
 subject to restrictions as set forth in subparagraphs (a)
 and (c) of the Commercial Computer Software - Restricted
 Rights clause in FAR 52.227-19.
  
 Gaussian, Inc.
 340 Quinnipiac St., Bldg. 40, Wallingford CT 06492
  
  
 ---------------------------------------------------------------
 Warning -- This program may not be used in any manner that
 competes with the business of Gaussian, Inc. or will provide
 assistance to any competitor of Gaussian, Inc.  The licensee
 of this program is prohibited from giving any competitor of
 Gaussian, Inc. access to this program.  By using this program,
 the user acknowledges that Gaussian, Inc. is engaged in the
 business of creating and licensing software in the field of
 computational chemistry and represents and warrants to the
 licensee that it is not a competitor of Gaussian, Inc. and that
 it will not use this program in any manner prohibited above.
 ---------------------------------------------------------------
  

 Cite this work as:
 Gaussian 09, Revision D.01,
 M. J. Frisch, G. W. Trucks, H. B. Schlegel, G. E. Scuseria, 
 M. A. Robb, J. R. Cheeseman, G. Scalmani, V. Barone, B. Mennucci, 
 G. A. Petersson, H. Nakatsuji, M. Caricato, X. Li, H. P. Hratchian, 
 A. F. Izmaylov, J. Bloino, G. Zheng, J. L. Sonnenberg, M. Hada, 
 M. Ehara, K. Toyota, R. Fukuda, J. Hasegawa, M. Ishida, T. Nakajima, 
 Y. Honda, O. Kitao, H. Nakai, T. Vreven, J. A. Montgomery, Jr., 
 J. E. Peralta, F. Ogliaro, M. Bearpark, J. J. Heyd, E. Brothers, 
 K. N. Kudin, V. N. Staroverov, T. Keith, R. Kobayashi, J. Normand, 
 K. Raghavachari, A. Rendell, J. C. Burant, S. S. Iyengar, J. Tomasi, 
 M. Cossi, N. Rega, J. M. Millam, M. Klene, J. E. Knox, J. B. Cross, 
 V. Bakken, C. Adamo, J. Jaramillo, R. Gomperts, R. E. Stratmann, 
 O. Yazyev, A. J. Austin, R. Cammi, C. Pomelli, J. W. Ochterski, 
 R. L. Martin, K. Morokuma, V. G. Zakrzewski, G. A. Voth, 
 P. Salvador, J. J. Dannenberg, S. Dapprich, A. D. Daniels, 
 O. Farkas, J. B. Foresman, J. V. Ortiz, J. Cioslowski, 
 and D. J. Fox, Gaussian, Inc., Wallingford CT, 2013.
 
 ******************************************
 Gaussian 09:  AM64L-G09RevD.01 24-Apr-2013
                28-Oct-2021 
 ******************************************
 %LindaWorkers=cn087
 %chk=cyano_mod_bp25_n.chk
 %mem=128GB
 %nprocshared=48
 Will use up to   48 processors via shared memory.
 SetLPE:  input flags=" -opt "Tsnet.Node.lindarsharg: ssh" "
 SetLPE:    new flags=" -opt "Tsnet.Node.lindarsharg: ssh"  -nodelist 'cn087'"
 Will use up to    1 processors via Linda.
 ----------------------------------------------------------------------
 # b3lyp/def2tzvp empiricaldispersion=gd3 pop=nbo6read pop=saveNBOs int
 =(grid=ultrafine) scf=(tight,maxcycle=300)
 ----------------------------------------------------------------------
 1/38=1,163=2/1;
 2/12=2,17=6,18=5,40=1/2;
 3/5=44,7=101,11=2,16=1,25=1,30=1,74=-5,75=-5,124=31/1,2,3;
 4//1;
 5/5=2,7=300,32=2,38=5/2;
 6/7=2,8=2,9=2,10=2,28=1,40=2,73=1,113=1,114=1,124=2103/1,12;
 99/5=1,9=1/99;
 ---------------------------------------------
 Energy Optimisation and Frequency calculation
 ---------------------------------------------
 Symbolic Z-matrix:
 Charge =  0 Multiplicity = 1
 C                    -0.27296  -0.82193   0.30488 
 C                    -0.9107   -2.0607    0.3174 
 C                    -2.26599  -2.19238   0.03459 
 C                    -3.00941  -1.06201  -0.27026 
 C                    -2.39858   0.18698  -0.26892 
 C                    -1.04017   0.32611   0.02205 
 H                    -0.32399  -2.94582   0.5357 
 H                    -4.06455  -1.14453  -0.49949 
 H                    -2.9908    1.06414  -0.49192 
 N                    -0.39944   1.60237   0.02228 
 C                    -0.92645   2.58961  -0.90533 
 H                    -1.88735   3.02655  -0.58979 
 H                    -0.20943   3.40857  -0.99313 
 H                    -1.05942   2.14143  -1.88974 
 C                    -0.20195   2.17003   1.35404 
 H                    -1.14225   2.55455   1.78001 
 H                     0.51338   2.99341   1.3009 
 H                     0.19006   1.41941   2.03662 
 C                     1.22135  -0.75036   0.50601 
 H                     1.57985  -1.69446   0.91923 
 H                     1.50105   0.01493   1.22844 
 C                     1.96036  -0.46474  -0.80265 
 H                     1.60411   0.47453  -1.24176 
 H                     1.75514  -1.23583  -1.55532 
 C                     3.45107  -0.35185  -0.65799 
 H                     3.99855  -0.18796  -1.61243 
 O                     4.05286  -0.41849   0.3837 
 C                    -2.92682  -3.58333   0.04832 
 N                    -3.41883  -4.61895   0.05854 
 
                          Input orientation:                          
 ---------------------------------------------------------------------
 Center     Atomic      Atomic             Coordinates (Angstroms)
 Number     Number       Type             X           Y           Z
 ---------------------------------------------------------------------
      1          6           0       -0.272962   -0.821932    0.304875
      2          6           0       -0.910699   -2.060703    0.317395
      3          6           0       -2.265994   -2.192382    0.034593
      4          6           0       -3.009414   -1.062015   -0.270256
      5          6           0       -2.398584    0.186978   -0.268920
      6          6           0       -1.040170    0.326109    0.022048
      7          1           0       -0.323987   -2.945817    0.535701
      8          1           0       -4.064546   -1.144532   -0.499486
      9          1           0       -2.990802    1.064137   -0.491922
     10          7           0       -0.399435    1.602365    0.022284
     11          6           0       -0.926453    2.589607   -0.905328
     12          1           0       -1.887352    3.026550   -0.589788
     13          1           0       -0.209428    3.408569   -0.993134
     14          1           0       -1.059416    2.141428   -1.889741
     15          6           0       -0.201949    2.170034    1.354044
     16          1           0       -1.142254    2.554549    1.780012
     17          1           0        0.513379    2.993405    1.300902
     18          1           0        0.190060    1.419413    2.036621
     19          6           0        1.221347   -0.750358    0.506006
     20          1           0        1.579847   -1.694457    0.919233
     21          1           0        1.501052    0.014928    1.228440
     22          6           0        1.960363   -0.464736   -0.802652
     23          1           0        1.604113    0.474533   -1.241760
     24          1           0        1.755140   -1.235828   -1.555320
     25          6           0        3.451068   -0.351845   -0.657990
     26          1           0        3.998546   -0.187956   -1.612433
     27          8           0        4.052859   -0.418488    0.383696
     28          6           0       -2.926815   -3.583327    0.048317
     29          7           0       -3.418827   -4.618948    0.058535
 ---------------------------------------------------------------------
                    Distance matrix (angstroms):
                    1          2          3          4          5
     1  C    0.000000
     2  C    1.393348   0.000000
     3  C    2.433796   1.390734   0.000000
     4  C    2.806525   2.397356   1.386844   0.000000
     5  C    2.421861   2.758557   2.402302   1.390359   0.000000
     6  C    1.409467   2.408498   2.801000   2.426984   1.396176
     7  H    2.137001   1.084120   2.142467   3.377839   3.842626
     8  H    3.889367   3.384289   2.148958   1.082894   2.145113
     9  H    3.402763   3.840110   3.377496   2.137757   1.081601
    10  N    2.443986   3.710330   4.228983   3.741188   2.466722
    11  C    3.678347   4.808397   5.054230   4.251633   2.888739
    12  H    4.268195   5.258990   5.269770   4.251763   2.903013
    13  H    4.425608   5.667645   6.054448   5.324340   3.961760
    14  H    3.770458   4.748839   4.892934   4.085006   2.870593
    15  C    3.171381   4.413174   5.003190   4.578903   3.375163
    16  H    3.785805   4.847001   5.180988   4.557348   3.373704
    17  H    4.020845   5.342218   6.018375   5.596878   4.338191
    18  H    2.870011   4.034677   4.804725   4.660021   3.679061
    19  C    1.509482   2.509621   3.803053   4.312662   3.818771
    20  H    2.138139   2.588274   3.977563   4.782905   4.558445
    21  H    2.168048   3.309802   4.526381   4.873418   4.180771
    22  C    2.518322   3.470535   4.641964   5.033773   4.439597
    23  H    2.756141   3.896494   4.870240   4.958773   4.129248
    24  H    2.782954   3.360681   4.428582   4.937872   4.575219
    25  C    3.875112   4.785037   6.045829   6.510953   5.887286
    26  H    4.724804   5.597509   6.780478   7.188666   6.547433
    27  O    4.345309   5.228592   6.572403   7.121621   6.512573
    28  C    3.838497   2.540770   1.540000   2.542700   3.820322
    29  N    4.937052   3.591982   2.686600   3.595483   4.923926
                    6          7          8          9         10
     6  C    0.000000
     7  H    3.388548   0.000000
     8  H    3.403180   4.278787   0.000000
     9  H    2.147979   4.924190   2.455851   0.000000
    10  N    1.428065   4.577690   4.609851   2.696160   0.000000
    11  C    2.448751   5.751561   4.894500   2.599904   1.453568
    12  H    2.895590   6.275349   4.705981   2.253496   2.148681
    13  H    3.349968   6.536718   5.986347   3.672004   2.080757
    14  H    2.636416   5.683633   4.664885   2.616239   2.093324
    15  C    2.424229   5.182327   5.416787   3.522542   1.461107
    16  H    2.840212   5.698412   5.236325   3.286357   2.132614
    17  H    3.341175   6.046575   6.428166   4.383558   2.098353
    18  H    2.601400   4.644592   5.577394   4.078926   2.106782
    19  C    2.550972   2.684954   5.395095   4.693661   2.897624
    20  H    3.428136   2.310321   5.845883   5.521959   3.948558
    21  H    2.830199   3.546359   5.941882   4.923133   2.754382
    22  C    3.210726   3.628389   6.070713   5.191150   3.243774
    23  H    2.934531   4.309957   5.941888   4.692881   2.623741
    24  H    3.569523   3.408695   5.915392   5.380020   3.896969
    25  C    4.592743   4.733353   7.558964   6.597748   4.371279
    26  H    5.322072   5.559188   8.195556   7.188482   5.021930
    27  O    5.159860   5.056410   8.197525   7.251072   4.902794
    28  C    4.340945   2.723725   2.746313   4.679195   5.768858
    29  N    5.487525   3.550365   3.577696   5.725702   6.915401
                   11         12         13         14         15
    11  C    0.000000
    12  H    1.101731   0.000000
    13  H    1.092032   1.767500   0.000000
    14  H    1.089776   1.777300   1.769754   0.000000
    15  C    2.409504   2.711584   2.653916   3.355325   0.000000
    16  H    2.694225   2.528618   3.047926   3.693862   1.101578
    17  H    2.665262   3.056030   2.440781   3.657834   1.091997
    18  H    3.357234   3.714371   3.646333   4.183158   1.087665
    19  C    4.214294   5.012964   4.646634   4.393621   3.357623
    20  H    5.288078   6.048679   5.735811   5.437836   4.277633
    21  H    4.132157   4.884373   4.402037   4.560817   2.749631
    22  C    4.203958   5.199933   4.443734   4.134358   4.033478
    23  H    3.315191   4.373578   3.458224   3.208240   3.588145
    24  H    4.716713   5.689276   5.074052   4.409016   4.888199
    25  C    5.279773   6.317985   5.258542   5.298876   4.873673
    26  H    5.698286   6.783999   5.570060   5.575474   5.657231
    27  O    5.958504   6.935565   5.891444   6.152808   5.073994
    28  C    6.558658   6.721468   7.573336   6.325825   6.498537
    29  N    7.687927   7.824281   8.709034   7.420599   7.623446
                   16         17         18         19         20
    16  H    0.000000
    17  H    1.778556   0.000000
    18  H    1.769023   1.767277   0.000000
    19  C    4.258182   3.892151   2.848551   0.000000
    20  H    5.119065   4.822766   3.588349   1.091147   0.000000
    21  H    3.706882   3.138801   2.084331   1.088948   1.738912
    22  C    5.041078   4.298539   3.839982   1.529807   2.149859
    23  H    4.582587   3.741597   3.693254   2.168307   3.061862
    24  H    5.821193   5.252274   4.733056   2.183960   2.522792
    25  C    5.957314   4.863946   4.586116   2.546636   2.791363
    26  H    6.742243   5.545716   5.513964   3.537925   3.811690
    27  O    6.146369   5.001020   4.585985   2.853517   2.833846
    28  C    6.622457   7.527105   6.220584   5.044050   4.963500
    29  N    7.720449   8.657577   7.307441   6.057841   5.854929
                   21         22         23         24         25
    21  H    0.000000
    22  C    2.136909   0.000000
    23  H    2.514706   1.096338   0.000000
    24  H    3.062396   1.096909   1.745412   0.000000
    25  C    2.737828   1.501956   2.105928   2.112534   0.000000
    26  H    3.788033   2.210553   2.511892   2.476725   1.112454
    27  O    2.722712   2.405847   3.071799   3.115660   1.204867
    28  C    5.826331   5.859545   6.217703   5.477509   7.184618
    29  N    6.859059   6.850898   7.270780   6.389050   8.118931
                   26         27         28         29
    26  H    0.000000
    27  O    2.010131   0.000000
    28  C    7.889693   7.671019   0.000000
    29  N    8.800185   8.577627   1.146600   0.000000
 Stoichiometry    C12H14N2O
 Framework group  C1[X(C12H14N2O)]
 Deg. of freedom    81
 Full point group                 C1      NOp   1
 Largest Abelian subgroup         C1      NOp   1
 Largest concise Abelian subgroup C1      NOp   1
                         Standard orientation:                         
 ---------------------------------------------------------------------
 Center     Atomic      Atomic             Coordinates (Angstroms)
 Number     Number       Type             X           Y           Z
 ---------------------------------------------------------------------
      1          6           0       -0.121827   -0.343768    0.296895
      2          6           0       -1.331942   -1.034437    0.300793
      3          6           0       -2.538408   -0.404692    0.014432
      4          6           0       -2.543698    0.949372   -0.285270
      5          6           0       -1.350631    1.663228   -0.275307
      6          6           0       -0.137528    1.037998    0.019270
      7          1           0       -1.323852   -2.097137    0.515078
      8          1           0       -3.472013    1.456442   -0.517153
      9          1           0       -1.367652    2.722281   -0.494346
     10          7           0        1.095477    1.758404    0.028356
     11          6           0        1.196619    2.876873   -0.894496
     12          1           0        0.627853    3.765904   -0.578360
     13          1           0        2.244655    3.172697   -0.975993
     14          1           0        0.845645    2.577465   -1.881808
     15          6           0        1.563975    2.121460    1.363846
     16          1           0        0.983338    2.954891    1.790141
     17          1           0        2.612822    2.421772    1.317035
     18          1           0        1.479900    1.275892    2.042786
     19          6           0        1.168796   -1.099387    0.501518
     20          1           0        0.952463   -2.087832    0.909903
     21          1           0        1.816980   -0.613185    1.229029
     22          6           0        1.950479   -1.257948   -0.803909
     23          1           0        2.166192   -0.274679   -1.238198
     24          1           0        1.361711   -1.789516   -1.561535
     25          6           0        3.260889   -1.976752   -0.655517
     26          1           0        3.813888   -2.134264   -1.607849
     27          8           0        3.723846   -2.364755    0.386993
     28          6           0       -3.850857   -1.210334    0.018588
     29          7           0       -4.828035   -1.810171    0.021683
 ---------------------------------------------------------------------
 Rotational constants (GHZ):      0.7718998      0.3850302      0.2790436
 Standard basis: def2TZVP (5D, 7F)
 There are   624 symmetry adapted cartesian basis functions of A   symmetry.
 There are   549 symmetry adapted basis functions of A   symmetry.
   549 basis functions,   877 primitive gaussians,   624 cartesian basis functions
    54 alpha electrons       54 beta electrons
       nuclear repulsion energy       925.3592763319 Hartrees.
 NAtoms=   29 NActive=   29 NUniq=   29 SFac= 1.00D+00 NAtFMM=   60 NAOKFM=F Big=F
 Integral buffers will be    131072 words long.
 Raffenetti 2 integral format.
 Two-electron integral symmetry is turned on.
 Nuclear repulsion after empirical dispersion term =      925.3317750863 Hartrees.
 One-electron integrals computed using PRISM.
   1 Symmetry operations used in ECPInt.
 ECPInt:  NShTT=   24531 NPrTT=   74292 LenC2=   22555 LenP2D=   50584.
 LDataN:  DoStor=T MaxTD1= 6 Len=  172
 NBasis=   549 RedAO= T EigKep=  5.02D-06  NBF=   549
 NBsUse=   549 1.00D-06 EigRej= -1.00D+00 NBFU=   549
 ExpMin= 9.52D-02 ExpMax= 2.70D+04 ExpMxC= 9.22D+02 IAcc=3 IRadAn=         5 AccDes= 0.00D+00
 Harris functional with IExCor=  402 and IRadAn=       5 diagonalized for initial guess.
 HarFok:  IExCor=  402 AccDes= 0.00D+00 IRadAn=         5 IDoV= 1 UseB2=F ITyADJ=14
 ICtDFT=  3500011 ScaDFX=  1.000000  1.000000  1.000000  1.000000
 FoFCou: FMM=F IPFlag=           0 FMFlag=      100000 FMFlg1=           0
         NFxFlg=           0 DoJE=T BraDBF=F KetDBF=T FulRan=T
         wScrn=  0.000000 ICntrl=     500 IOpCl=  0 I1Cent=   200000004 NGrid=           0
         NMat0=    1 NMatS0=      1 NMatT0=    0 NMatD0=    1 NMtDS0=    0 NMtDT0=    0
 Petite list used in FoFCou.
 Keep R1 ints in memory in canonical form, NReq=11520166478.
 Requested convergence on RMS density matrix=1.00D-08 within 300 cycles.
 Requested convergence on MAX density matrix=1.00D-06.
 Requested convergence on             energy=1.00D-06.
 No special actions if energy rises.
 Integral accuracy reduced to 1.0D-05 until final iterations.
 Initial convergence to 1.0D-05 achieved.  Increase integral accuracy.
 SCF Done:  E(RB3LYP) =  -650.668752850     A.U. after   15 cycles
            NFock= 15  Conv=0.41D-08     -V/T= 2.0053

 **********************************************************************

            Population analysis using the SCF density.

 **********************************************************************

 Orbital symmetries:
       Occupied  (A) (A) (A) (A) (A) (A) (A) (A) (A) (A) (A) (A)
                 (A) (A) (A) (A) (A) (A) (A) (A) (A) (A) (A) (A)
                 (A) (A) (A) (A) (A) (A) (A) (A) (A) (A) (A) (A)
                 (A) (A) (A) (A) (A) (A) (A) (A) (A) (A) (A) (A)
                 (A) (A) (A) (A) (A) (A)
       Virtual   (A) (A) (A) (A) (A) (A) (A) (A) (A) (A) (A) (A)
                 (A) (A) (A) (A) (A) (A) (A) (A) (A) (A) (A) (A)
                 (A) (A) (A) (A) (A) (A) (A) (A) (A) (A) (A) (A)
                 (A) (A) (A) (A) (A) (A) (A) (A) (A) (A) (A) (A)
                 (A) (A) (A) (A) (A) (A) (A) (A) (A) (A) (A) (A)
                 (A) (A) (A) (A) (A) (A) (A) (A) (A) (A) (A) (A)
                 (A) (A) (A) (A) (A) (A) (A) (A) (A) (A) (A) (A)
                 (A) (A) (A) (A) (A) (A) (A) (A) (A) (A) (A) (A)
                 (A) (A) (A) (A) (A) (A) (A) (A) (A) (A) (A) (A)
                 (A) (A) (A) (A) (A) (A) (A) (A) (A) (A) (A) (A)
                 (A) (A) (A) (A) (A) (A) (A) (A) (A) (A) (A) (A)
                 (A) (A) (A) (A) (A) (A) (A) (A) (A) (A) (A) (A)
                 (A) (A) (A) (A) (A) (A) (A) (A) (A) (A) (A) (A)
                 (A) (A) (A) (A) (A) (A) (A) (A) (A) (A) (A) (A)
                 (A) (A) (A) (A) (A) (A) (A) (A) (A) (A) (A) (A)
                 (A) (A) (A) (A) (A) (A) (A) (A) (A) (A) (A) (A)
                 (A) (A) (A) (A) (A) (A) (A) (A) (A) (A) (A) (A)
                 (A) (A) (A) (A) (A) (A) (A) (A) (A) (A) (A) (A)
                 (A) (A) (A) (A) (A) (A) (A) (A) (A) (A) (A) (A)
                 (A) (A) (A) (A) (A) (A) (A) (A) (A) (A) (A) (A)
                 (A) (A) (A) (A) (A) (A) (A) (A) (A) (A) (A) (A)
                 (A) (A) (A) (A) (A) (A) (A) (A) (A) (A) (A) (A)
                 (A) (A) (A) (A) (A) (A) (A) (A) (A) (A) (A) (A)
                 (A) (A) (A) (A) (A) (A) (A) (A) (A) (A) (A) (A)
                 (A) (A) (A) (A) (A) (A) (A) (A) (A) (A) (A) (A)
                 (A) (A) (A) (A) (A) (A) (A) (A) (A) (A) (A) (A)
                 (A) (A) (A) (A) (A) (A) (A) (A) (A) (A) (A) (A)
                 (A) (A) (A) (A) (A) (A) (A) (A) (A) (A) (A) (A)
                 (A) (A) (A) (A) (A) (A) (A) (A) (A) (A) (A) (A)
                 (A) (A) (A) (A) (A) (A) (A) (A) (A) (A) (A) (A)
                 (A) (A) (A) (A) (A) (A) (A) (A) (A) (A) (A) (A)
                 (A) (A) (A) (A) (A) (A) (A) (A) (A) (A) (A) (A)
                 (A) (A) (A) (A) (A) (A) (A) (A) (A) (A) (A) (A)
                 (A) (A) (A) (A) (A) (A) (A) (A) (A) (A) (A) (A)
                 (A) (A) (A) (A) (A) (A) (A) (A) (A) (A) (A) (A)
                 (A) (A) (A) (A) (A) (A) (A) (A) (A) (A) (A) (A)
                 (A) (A) (A) (A) (A) (A) (A) (A) (A) (A) (A) (A)
                 (A) (A) (A) (A) (A) (A) (A) (A) (A) (A) (A) (A)
                 (A) (A) (A) (A) (A) (A) (A) (A) (A) (A) (A) (A)
                 (A) (A) (A) (A) (A) (A) (A) (A) (A) (A) (A) (A)
                 (A) (A) (A) (A) (A) (A) (A) (A) (A) (A) (A) (A)
                 (A) (A) (A)
 The electronic state is 1-A.
 Alpha  occ. eigenvalues --  -19.13667 -14.34314 -14.31566 -10.27178 -10.23619
 Alpha  occ. eigenvalues --  -10.23430 -10.21722 -10.21299 -10.21262 -10.20758
 Alpha  occ. eigenvalues --  -10.20609 -10.20421 -10.19913 -10.19582 -10.19241
 Alpha  occ. eigenvalues --   -1.06309  -0.96238  -0.91414  -0.88311  -0.82332
 Alpha  occ. eigenvalues --   -0.78010  -0.76970  -0.73329  -0.69592  -0.67803
 Alpha  occ. eigenvalues --   -0.62617  -0.61272  -0.57642  -0.55188  -0.52447
 Alpha  occ. eigenvalues --   -0.51771  -0.49892  -0.48513  -0.47540  -0.46639
 Alpha  occ. eigenvalues --   -0.46018  -0.45388  -0.43919  -0.42289  -0.41614
 Alpha  occ. eigenvalues --   -0.41201  -0.40333  -0.39550  -0.38967  -0.38606
 Alpha  occ. eigenvalues --   -0.37484  -0.36697  -0.35979  -0.35246  -0.34499
 Alpha  occ. eigenvalues --   -0.29014  -0.28401  -0.26667  -0.23834
 Alpha virt. eigenvalues --   -0.05487  -0.03908  -0.03792   0.01343   0.03050
 Alpha virt. eigenvalues --    0.03291   0.03795   0.04290   0.05609   0.06663
 Alpha virt. eigenvalues --    0.06906   0.07097   0.07950   0.08248   0.09046
 Alpha virt. eigenvalues --    0.09953   0.10115   0.11367   0.11632   0.12567
 Alpha virt. eigenvalues --    0.13077   0.13300   0.14321   0.15239   0.16486
 Alpha virt. eigenvalues --    0.17287   0.17493   0.18763   0.18993   0.20076
 Alpha virt. eigenvalues --    0.20868   0.21188   0.21643   0.22151   0.23233
 Alpha virt. eigenvalues --    0.23498   0.24097   0.24676   0.26186   0.26868
 Alpha virt. eigenvalues --    0.27492   0.27998   0.28434   0.28996   0.29604
 Alpha virt. eigenvalues --    0.30594   0.31446   0.31555   0.32358   0.32746
 Alpha virt. eigenvalues --    0.33143   0.34148   0.35882   0.36633   0.37131
 Alpha virt. eigenvalues --    0.37551   0.38143   0.38880   0.39050   0.39453
 Alpha virt. eigenvalues --    0.39668   0.40102   0.40897   0.41851   0.42063
 Alpha virt. eigenvalues --    0.42174   0.43113   0.43377   0.43665   0.44270
 Alpha virt. eigenvalues --    0.44929   0.45148   0.45854   0.46510   0.47305
 Alpha virt. eigenvalues --    0.47460   0.48547   0.49117   0.49212   0.50422
 Alpha virt. eigenvalues --    0.51228   0.51306   0.52801   0.53938   0.54604
 Alpha virt. eigenvalues --    0.54990   0.56276   0.56469   0.57107   0.59147
 Alpha virt. eigenvalues --    0.60075   0.60619   0.61385   0.62454   0.63340
 Alpha virt. eigenvalues --    0.63967   0.65002   0.66034   0.66143   0.67067
 Alpha virt. eigenvalues --    0.68469   0.68522   0.69352   0.70836   0.71600
 Alpha virt. eigenvalues --    0.72093   0.73908   0.74376   0.75840   0.77343
 Alpha virt. eigenvalues --    0.78422   0.79200   0.79850   0.81728   0.81819
 Alpha virt. eigenvalues --    0.82316   0.83776   0.85241   0.85928   0.86944
 Alpha virt. eigenvalues --    0.88104   0.88471   0.89773   0.90336   0.91783
 Alpha virt. eigenvalues --    0.92038   0.93223   0.96149   0.97020   0.97773
 Alpha virt. eigenvalues --    1.00061   1.01034   1.01742   1.02721   1.04822
 Alpha virt. eigenvalues --    1.05562   1.06038   1.06922   1.07247   1.08217
 Alpha virt. eigenvalues --    1.09929   1.10208   1.11953   1.13267   1.13533
 Alpha virt. eigenvalues --    1.14584   1.16368   1.17640   1.20511   1.21259
 Alpha virt. eigenvalues --    1.21628   1.23188   1.23514   1.24969   1.25917
 Alpha virt. eigenvalues --    1.26934   1.27425   1.29757   1.30836   1.31964
 Alpha virt. eigenvalues --    1.33211   1.34319   1.35114   1.36268   1.37971
 Alpha virt. eigenvalues --    1.39438   1.40232   1.41037   1.41836   1.42435
 Alpha virt. eigenvalues --    1.44697   1.45131   1.45464   1.48754   1.49189
 Alpha virt. eigenvalues --    1.49926   1.50828   1.51076   1.51923   1.52834
 Alpha virt. eigenvalues --    1.53346   1.53484   1.54614   1.54863   1.55466
 Alpha virt. eigenvalues --    1.56755   1.57842   1.58208   1.58760   1.59352
 Alpha virt. eigenvalues --    1.60517   1.61761   1.62740   1.63252   1.63442
 Alpha virt. eigenvalues --    1.65568   1.66710   1.67964   1.70104   1.71784
 Alpha virt. eigenvalues --    1.72440   1.73513   1.75243   1.78490   1.80369
 Alpha virt. eigenvalues --    1.81594   1.82623   1.83095   1.84340   1.86263
 Alpha virt. eigenvalues --    1.86483   1.88005   1.89147   1.90688   1.90973
 Alpha virt. eigenvalues --    1.91714   1.92386   1.94649   1.95916   1.96553
 Alpha virt. eigenvalues --    1.97460   1.99790   2.00879   2.02579   2.04761
 Alpha virt. eigenvalues --    2.05570   2.06004   2.09253   2.10085   2.10975
 Alpha virt. eigenvalues --    2.13599   2.14362   2.15017   2.15861   2.16980
 Alpha virt. eigenvalues --    2.17271   2.18506   2.19065   2.20076   2.21909
 Alpha virt. eigenvalues --    2.22616   2.25303   2.26120   2.27482   2.28347
 Alpha virt. eigenvalues --    2.30158   2.31384   2.31490   2.33142   2.34353
 Alpha virt. eigenvalues --    2.38307   2.38445   2.39296   2.41277   2.42122
 Alpha virt. eigenvalues --    2.42805   2.43158   2.45939   2.46569   2.48736
 Alpha virt. eigenvalues --    2.50456   2.50518   2.52012   2.52206   2.52401
 Alpha virt. eigenvalues --    2.53204   2.54980   2.55856   2.56596   2.57265
 Alpha virt. eigenvalues --    2.57951   2.59389   2.60223   2.62026   2.62716
 Alpha virt. eigenvalues --    2.63713   2.65015   2.65297   2.66256   2.66945
 Alpha virt. eigenvalues --    2.68950   2.69453   2.70286   2.71280   2.71918
 Alpha virt. eigenvalues --    2.72868   2.74196   2.74859   2.76618   2.77304
 Alpha virt. eigenvalues --    2.78325   2.79761   2.81092   2.82045   2.83651
 Alpha virt. eigenvalues --    2.84726   2.84836   2.85916   2.87372   2.87611
 Alpha virt. eigenvalues --    2.88086   2.88856   2.90398   2.91971   2.93720
 Alpha virt. eigenvalues --    2.95812   2.96922   2.98169   2.98454   3.00319
 Alpha virt. eigenvalues --    3.01017   3.02856   3.03380   3.03657   3.04400
 Alpha virt. eigenvalues --    3.05184   3.06307   3.06742   3.08352   3.08584
 Alpha virt. eigenvalues --    3.10551   3.10995   3.12395   3.13129   3.13344
 Alpha virt. eigenvalues --    3.13877   3.14383   3.16080   3.16398   3.17696
 Alpha virt. eigenvalues --    3.17891   3.19109   3.20308   3.21746   3.22024
 Alpha virt. eigenvalues --    3.23106   3.24978   3.25624   3.27049   3.27976
 Alpha virt. eigenvalues --    3.29263   3.29999   3.30398   3.30655   3.31126
 Alpha virt. eigenvalues --    3.31901   3.33339   3.34470   3.35578   3.35917
 Alpha virt. eigenvalues --    3.37447   3.38048   3.38906   3.39865   3.41138
 Alpha virt. eigenvalues --    3.41637   3.42440   3.44523   3.46827   3.47365
 Alpha virt. eigenvalues --    3.47652   3.49018   3.50281   3.51407   3.52534
 Alpha virt. eigenvalues --    3.53734   3.55406   3.55968   3.56845   3.58357
 Alpha virt. eigenvalues --    3.59189   3.59518   3.62190   3.62628   3.65477
 Alpha virt. eigenvalues --    3.67934   3.68471   3.68997   3.71809   3.72629
 Alpha virt. eigenvalues --    3.73985   3.75678   3.77378   3.78274   3.78978
 Alpha virt. eigenvalues --    3.81740   3.84829   3.85708   3.86858   3.89354
 Alpha virt. eigenvalues --    3.91243   3.94427   3.96348   3.97430   3.97710
 Alpha virt. eigenvalues --    3.98347   4.02101   4.03797   4.05573   4.07296
 Alpha virt. eigenvalues --    4.07821   4.10669   4.11615   4.14601   4.15943
 Alpha virt. eigenvalues --    4.16637   4.18507   4.19553   4.21508   4.22646
 Alpha virt. eigenvalues --    4.23328   4.25166   4.26066   4.28612   4.30191
 Alpha virt. eigenvalues --    4.32145   4.32912   4.35966   4.38407   4.40380
 Alpha virt. eigenvalues --    4.42157   4.44282   4.46062   4.47829   4.51336
 Alpha virt. eigenvalues --    4.52517   4.53726   4.56086   4.56955   4.59109
 Alpha virt. eigenvalues --    4.60204   4.64617   4.66299   4.68478   4.69613
 Alpha virt. eigenvalues --    4.74516   4.75693   4.78933   4.81797   4.87343
 Alpha virt. eigenvalues --    4.89632   4.90407   4.94025   4.98035   5.00386
 Alpha virt. eigenvalues --    5.02885   5.11653   5.11939   5.15874   5.16928
 Alpha virt. eigenvalues --    5.18312   5.22951   5.25339   5.28971   5.32866
 Alpha virt. eigenvalues --    5.34519   5.37877   5.38332   5.46504   5.46829
 Alpha virt. eigenvalues --    5.51419   5.54954   5.55924   5.64604   5.64945
 Alpha virt. eigenvalues --    5.69349   5.75915   5.77260   5.83302   5.92977
 Alpha virt. eigenvalues --    6.01122   6.10139   6.15306   6.30739   6.33552
 Alpha virt. eigenvalues --    6.40373   6.45562   6.77713   6.92354   7.03672
 Alpha virt. eigenvalues --   22.13936  22.38253  22.42274  22.48513  22.56084
 Alpha virt. eigenvalues --   22.71064  22.71796  22.81674  22.84739  22.95058
 Alpha virt. eigenvalues --   23.32757  23.50962  32.08569  32.72098  43.74355
          Condensed to atoms (all electrons):
               1          2          3          4          5          6
     1  C    5.355645   0.326763   0.038682  -0.078602   0.042495   0.272088
     2  C    0.326763   5.324307   0.363236   0.016381  -0.142991   0.017474
     3  C    0.038682   0.363236   5.016000   0.432547   0.039019  -0.093419
     4  C   -0.078602   0.016381   0.432547   5.077598   0.363850   0.021872
     5  C    0.042495  -0.142991   0.039019   0.363850   5.189375   0.371363
     6  C    0.272088   0.017474  -0.093419   0.021872   0.371363   5.203093
     7  H   -0.076209   0.447076  -0.049932   0.011988  -0.004461   0.017291
     8  H   -0.001133   0.009071  -0.040840   0.428085  -0.051078   0.010121
     9  H    0.008180  -0.001749   0.010925  -0.047129   0.445532  -0.066060
    10  N   -0.113758   0.001447   0.000871   0.006429  -0.070729   0.337009
    11  C    0.012482  -0.000537   0.000523  -0.001486   0.003483  -0.084091
    12  H   -0.004668  -0.000442   0.000213  -0.002083   0.006326  -0.017134
    13  H    0.000498   0.000079  -0.000003   0.000137   0.000873   0.009583
    14  H    0.004911   0.000575  -0.000459   0.001161  -0.012868   0.003874
    15  C    0.027176   0.003630  -0.000349   0.000046  -0.016460  -0.072675
    16  H   -0.004678  -0.001140   0.000153  -0.001700   0.006452  -0.006956
    17  H   -0.000461   0.000035  -0.000023   0.000156  -0.000257   0.013031
    18  H    0.007019   0.003223  -0.000436   0.000467  -0.000216  -0.014007
    19  C    0.251972  -0.069475   0.016804  -0.002922   0.023705  -0.112214
    20  H   -0.070085   0.009671   0.001280   0.000291  -0.001077   0.007842
    21  H   -0.032060   0.008477  -0.001903   0.000509  -0.001251  -0.017712
    22  C   -0.047635  -0.017223   0.003030  -0.000607   0.000305  -0.007649
    23  H    0.007195   0.004728  -0.000117   0.000052  -0.001998  -0.015383
    24  H   -0.012780  -0.001296  -0.000217  -0.000083   0.000106   0.009646
    25  C    0.016647  -0.001495  -0.000177   0.000001  -0.000093   0.000750
    26  H    0.002326  -0.000206  -0.000001  -0.000001   0.000000  -0.000068
    27  O    0.008646  -0.000338  -0.000013   0.000000  -0.000004   0.000272
    28  C   -0.002097  -0.047147   0.075533  -0.053843   0.001419   0.000983
    29  N   -0.000571   0.002904  -0.048092   0.002361  -0.000353   0.000050
               7          8          9         10         11         12
     1  C   -0.076209  -0.001133   0.008180  -0.113758   0.012482  -0.004668
     2  C    0.447076   0.009071  -0.001749   0.001447  -0.000537  -0.000442
     3  C   -0.049932  -0.040840   0.010925   0.000871   0.000523   0.000213
     4  C    0.011988   0.428085  -0.047129   0.006429  -0.001486  -0.002083
     5  C   -0.004461  -0.051078   0.445532  -0.070729   0.003483   0.006326
     6  C    0.017291   0.010121  -0.066060   0.337009  -0.084091  -0.017134
     7  H    0.534063  -0.000290   0.000041  -0.000275   0.000025  -0.000003
     8  H   -0.000290   0.527439  -0.006775  -0.000250  -0.000029   0.000054
     9  H    0.000041  -0.006775   0.544039  -0.004548   0.003147   0.004284
    10  N   -0.000275  -0.000250  -0.004548   6.696382   0.278440  -0.035537
    11  C    0.000025  -0.000029   0.003147   0.278440   4.929599   0.402661
    12  H   -0.000003   0.000054   0.004284  -0.035537   0.402661   0.624178
    13  H    0.000000  -0.000004  -0.000021  -0.046758   0.408688  -0.042417
    14  H    0.000006   0.000002  -0.002897  -0.043685   0.416059  -0.040936
    15  C    0.000053   0.000023  -0.000477   0.263222  -0.063473  -0.016427
    16  H   -0.000012   0.000027   0.000627  -0.036397  -0.013189   0.020212
    17  H    0.000001  -0.000001  -0.000084  -0.047064  -0.005647  -0.003342
    18  H    0.000053  -0.000002  -0.000006  -0.038810   0.010633  -0.001047
    19  C   -0.008536   0.000123  -0.000133   0.010490  -0.003432   0.000514
    20  H    0.004662   0.000000   0.000011   0.001160  -0.000048   0.000009
    21  H    0.000662  -0.000002   0.000001  -0.006690   0.000158  -0.000083
    22  C   -0.000398  -0.000013  -0.000011  -0.014407   0.002642  -0.000257
    23  H    0.000000   0.000004   0.000025   0.027820  -0.002055   0.000774
    24  H    0.000481   0.000000   0.000003   0.001220  -0.000050   0.000019
    25  C   -0.000139   0.000000  -0.000002   0.002524  -0.000086   0.000010
    26  H   -0.000003   0.000000   0.000000   0.000105   0.000009   0.000000
    27  O   -0.000008   0.000000   0.000000   0.000071   0.000001   0.000000
    28  C   -0.002746  -0.005873  -0.000165  -0.000021  -0.000016  -0.000006
    29  N    0.001236   0.000975   0.000002   0.000000   0.000000   0.000000
              13         14         15         16         17         18
     1  C    0.000498   0.004911   0.027176  -0.004678  -0.000461   0.007019
     2  C    0.000079   0.000575   0.003630  -0.001140   0.000035   0.003223
     3  C   -0.000003  -0.000459  -0.000349   0.000153  -0.000023  -0.000436
     4  C    0.000137   0.001161   0.000046  -0.001700   0.000156   0.000467
     5  C    0.000873  -0.012868  -0.016460   0.006452  -0.000257  -0.000216
     6  C    0.009583   0.003874  -0.072675  -0.006956   0.013031  -0.014007
     7  H    0.000000   0.000006   0.000053  -0.000012   0.000001   0.000053
     8  H   -0.000004   0.000002   0.000023   0.000027  -0.000001  -0.000002
     9  H   -0.000021  -0.002897  -0.000477   0.000627  -0.000084  -0.000006
    10  N   -0.046758  -0.043685   0.263222  -0.036397  -0.047064  -0.038810
    11  C    0.408688   0.416059  -0.063473  -0.013189  -0.005647   0.010633
    12  H   -0.042417  -0.040936  -0.016427   0.020212  -0.003342  -0.001047
    13  H    0.557034  -0.014831  -0.002083  -0.003754   0.004712   0.000541
    14  H   -0.014831   0.543202   0.011877  -0.001197   0.000462  -0.000277
    15  C   -0.002083   0.011877   4.924751   0.392853   0.409302   0.417525
    16  H   -0.003754  -0.001197   0.392853   0.616271  -0.041048  -0.034970
    17  H    0.004712   0.000462   0.409302  -0.041048   0.566080  -0.017951
    18  H    0.000541  -0.000277   0.417525  -0.034970  -0.017951   0.540902
    19  C   -0.000413  -0.000847  -0.016667   0.002700  -0.000242  -0.009293
    20  H   -0.000005  -0.000004   0.000205   0.000029  -0.000026  -0.000313
    21  H    0.000085   0.000077   0.001340  -0.000270  -0.000374   0.004443
    22  C    0.000625   0.000901  -0.000001  -0.000071  -0.000113   0.001190
    23  H   -0.001260  -0.001274  -0.000433   0.000358  -0.000500  -0.000447
    24  H   -0.000031  -0.000059  -0.000127   0.000017  -0.000007  -0.000055
    25  C   -0.000020  -0.000003   0.000127   0.000000   0.000072  -0.000325
    26  H    0.000002   0.000004  -0.000013  -0.000001   0.000016  -0.000018
    27  O    0.000000   0.000001   0.000008  -0.000001   0.000032  -0.000169
    28  C    0.000001   0.000003  -0.000008  -0.000009   0.000000   0.000005
    29  N    0.000000   0.000000   0.000000   0.000000   0.000000   0.000000
              19         20         21         22         23         24
     1  C    0.251972  -0.070085  -0.032060  -0.047635   0.007195  -0.012780
     2  C   -0.069475   0.009671   0.008477  -0.017223   0.004728  -0.001296
     3  C    0.016804   0.001280  -0.001903   0.003030  -0.000117  -0.000217
     4  C   -0.002922   0.000291   0.000509  -0.000607   0.000052  -0.000083
     5  C    0.023705  -0.001077  -0.001251   0.000305  -0.001998   0.000106
     6  C   -0.112214   0.007842  -0.017712  -0.007649  -0.015383   0.009646
     7  H   -0.008536   0.004662   0.000662  -0.000398   0.000000   0.000481
     8  H    0.000123   0.000000  -0.000002  -0.000013   0.000004   0.000000
     9  H   -0.000133   0.000011   0.000001  -0.000011   0.000025   0.000003
    10  N    0.010490   0.001160  -0.006690  -0.014407   0.027820   0.001220
    11  C   -0.003432  -0.000048   0.000158   0.002642  -0.002055  -0.000050
    12  H    0.000514   0.000009  -0.000083  -0.000257   0.000774   0.000019
    13  H   -0.000413  -0.000005   0.000085   0.000625  -0.001260  -0.000031
    14  H   -0.000847  -0.000004   0.000077   0.000901  -0.001274  -0.000059
    15  C   -0.016667   0.000205   0.001340  -0.000001  -0.000433  -0.000127
    16  H    0.002700   0.000029  -0.000270  -0.000071   0.000358   0.000017
    17  H   -0.000242  -0.000026  -0.000374  -0.000113  -0.000500  -0.000007
    18  H   -0.009293  -0.000313   0.004443   0.001190  -0.000447  -0.000055
    19  C    5.139619   0.422875   0.433483   0.223222  -0.049570  -0.031989
    20  H    0.422875   0.558389  -0.019729  -0.045040   0.006178  -0.001913
    21  H    0.433483  -0.019729   0.575504  -0.068958  -0.003061   0.006540
    22  C    0.223222  -0.045040  -0.068958   5.673928   0.366299   0.361962
    23  H   -0.049570   0.006178  -0.003061   0.366299   0.552040  -0.019391
    24  H   -0.031989  -0.001913   0.006540   0.361962  -0.019391   0.568239
    25  C   -0.014402   0.000590   0.003982   0.108533  -0.009687  -0.010593
    26  H    0.014833   0.001307   0.001750  -0.213912   0.007579   0.006484
    27  O    0.006881   0.008704   0.013881  -0.156188   0.003514   0.003787
    28  C   -0.002656   0.000049   0.000009   0.000133   0.000000  -0.000006
    29  N   -0.000035   0.000002   0.000000   0.000001   0.000000  -0.000001
              25         26         27         28         29
     1  C    0.016647   0.002326   0.008646  -0.002097  -0.000571
     2  C   -0.001495  -0.000206  -0.000338  -0.047147   0.002904
     3  C   -0.000177  -0.000001  -0.000013   0.075533  -0.048092
     4  C    0.000001  -0.000001   0.000000  -0.053843   0.002361
     5  C   -0.000093   0.000000  -0.000004   0.001419  -0.000353
     6  C    0.000750  -0.000068   0.000272   0.000983   0.000050
     7  H   -0.000139  -0.000003  -0.000008  -0.002746   0.001236
     8  H    0.000000   0.000000   0.000000  -0.005873   0.000975
     9  H   -0.000002   0.000000   0.000000  -0.000165   0.000002
    10  N    0.002524   0.000105   0.000071  -0.000021   0.000000
    11  C   -0.000086   0.000009   0.000001  -0.000016   0.000000
    12  H    0.000010   0.000000   0.000000  -0.000006   0.000000
    13  H   -0.000020   0.000002   0.000000   0.000001   0.000000
    14  H   -0.000003   0.000004   0.000001   0.000003   0.000000
    15  C    0.000127  -0.000013   0.000008  -0.000008   0.000000
    16  H    0.000000  -0.000001  -0.000001  -0.000009   0.000000
    17  H    0.000072   0.000016   0.000032   0.000000   0.000000
    18  H   -0.000325  -0.000018  -0.000169   0.000005   0.000000
    19  C   -0.014402   0.014833   0.006881  -0.002656  -0.000035
    20  H    0.000590   0.001307   0.008704   0.000049   0.000002
    21  H    0.003982   0.001750   0.013881   0.000009   0.000000
    22  C    0.108533  -0.213912  -0.156188   0.000133   0.000001
    23  H   -0.009687   0.007579   0.003514   0.000000   0.000000
    24  H   -0.010593   0.006484   0.003787  -0.000006  -0.000001
    25  C    4.689285   0.465696   0.659248   0.000006   0.000000
    26  H    0.465696   0.695778  -0.057969   0.000001   0.000000
    27  O    0.659248  -0.057969   7.778334   0.000000   0.000000
    28  C    0.000006   0.000001   0.000000   5.315184   0.989813
    29  N    0.000000   0.000000   0.000000   0.989813   6.014496
 Mulliken charges:
               1
     1  C    0.062012
     2  C   -0.255037
     3  C    0.237165
     4  C   -0.175475
     5  C   -0.190465
     6  C    0.211025
     7  H    0.125374
     8  H    0.130366
     9  H    0.113240
    10  N   -0.168260
    11  C   -0.294408
    12  H    0.105128
    13  H    0.128743
    14  H    0.136223
    15  C   -0.262944
    16  H    0.105695
    17  H    0.123241
    18  H    0.132341
    19  C   -0.224394
    20  H    0.114989
    21  H    0.101194
    22  C   -0.170290
    23  H    0.128613
    24  H    0.120092
    25  C    0.089552
    26  H    0.076304
    27  O   -0.268690
    28  C   -0.268545
    29  N    0.037213
 Sum of Mulliken charges =   0.00000
 Mulliken charges with hydrogens summed into heavy atoms:
               1
     1  C    0.062012
     2  C   -0.129663
     3  C    0.237165
     4  C   -0.045109
     5  C   -0.077225
     6  C    0.211025
    10  N   -0.168260
    11  C    0.075685
    15  C    0.098333
    19  C   -0.008211
    22  C    0.078414
    25  C    0.165856
    27  O   -0.268690
    28  C   -0.268545
    29  N    0.037213
 Electronic spatial extent (au):  <R**2>=           3872.4351
 Charge=              0.0000 electrons
 Dipole moment (field-independent basis, Debye):
    X=              3.3414    Y=              4.5299    Z=             -1.6845  Tot=              5.8756
 Quadrupole moment (field-independent basis, Debye-Ang):
   XX=           -122.3083   YY=            -89.5086   ZZ=            -88.4395
   XY=             -4.6750   XZ=             -4.8897   YZ=              2.8248
 Traceless Quadrupole moment (field-independent basis, Debye-Ang):
   XX=            -22.2229   YY=             10.5769   ZZ=             11.6460
   XY=             -4.6750   XZ=             -4.8897   YZ=              2.8248
 Octapole moment (field-independent basis, Debye-Ang**2):
  XXX=            131.3454  YYY=             27.9704  ZZZ=              0.2182  XYY=             14.4787
  XXY=            105.4255  XXZ=            -25.7934  XZZ=             16.4874  YZZ=             -1.0026
  YYZ=            -11.1886  XYZ=             18.2188
 Hexadecapole moment (field-independent basis, Debye-Ang**3):
 XXXX=          -4251.2271 YYYY=          -1665.3264 ZZZZ=           -343.2138 XXXY=           -253.0710
 XXXZ=            -63.3548 YYYX=            -26.0040 YYYZ=              4.9509 ZZZX=              2.0506
 ZZZY=              0.4944 XXYY=          -1016.7944 XXZZ=           -598.0571 YYZZ=           -328.7916
 XXYZ=             48.2197 YYXZ=            -29.7779 ZZXY=            -10.7315
 N-N= 9.253317750863D+02 E-N=-3.363068866971D+03  KE= 6.472283609430D+02
 Running external command "gaunbo6 R"
         input file       "/scratch/aloke/Gau-19805.EIn"
         output file      "/scratch/aloke/Gau-19805.EOu"
         message file     "/scratch/aloke/Gau-19805.EMs"
         fchk file        "/scratch/aloke/Gau-19805.EFC"
         mat. el file     "/scratch/aloke/Gau-19805.EUF"

 Writing Wrt12E file "/scratch/aloke/Gau-19805.EUF"
 Gaussian matrix elements                                         Version   1 NLab= 7 Len12L=8 Len4L=8
 Write GAUSSIAN SCALARS               from file   501 offset           0 to matrix element file.
 Write OVERLAP                        from file   514 offset           0 to matrix element file.
 Write CORE HAMILTONIAN ALPHA         from file   515 offset           0 to matrix element file.
 Write CORE HAMILTONIAN BETA          from file   515 offset      150975 to matrix element file.
 Write KINETIC ENERGY                 from file   516 offset           0 to matrix element file.
 Write ORTHOGONAL BASIS               from file   685 offset           0 to matrix element file.
 Write DIPOLE INTEGRALS               from file   518 offset           0 to matrix element file.
 Array DIP VEL INTEGRALS               on  file    572 does not exist.
 Array R X DEL INTEGRALS               on  file    572 does not exist.
 Write ALPHA ORBITAL ENERGIES         from file     0 offset           0 to matrix element file.
 Write ALPHA MO COEFFICIENTS          from file 10524 offset           0 to matrix element file.
 Write ALPHA DENSITY MATRIX           from file     0 offset           0 to matrix element file.
 Write ALPHA SCF DENSITY MATRIX       from file 10528 offset           0 to matrix element file.
 Write ALPHA FOCK MATRIX              from file 10536 offset           0 to matrix element file.
 No 2e integrals to process.
 Perform NBO analysis...

 *********************************** NBO 6.0 ***********************************
             N A T U R A L   A T O M I C   O R B I T A L   A N D
          N A T U R A L   B O N D   O R B I T A L   A N A L Y S I S
 ************************* Aloke Das Software (101058) *************************
  (c) Copyright 1996-2016 Board of Regents of the University of Wisconsin System
      on behalf of the Theoretical Chemistry Institute.  All rights reserved.

          Cite this program as:

          NBO 6.0.  E. D. Glendening, J. K. Badenhoop, A. E. Reed,
          J. E. Carpenter, J. A. Bohmann, C. M. Morales, C. R. Landis,
          and F. Weinhold (Theoretical Chemistry Institute, University
          of Wisconsin, Madison, WI, 2013); http://nbo6.chem.wisc.edu/

       /E2PERT / : Analyze NBO Fock matrix
                   Print threshold set to 0.1
       /AONBO  / : Checkpoint the AO to NBO transformation
                   NBOs sorted by occupancy

 Filename set to /scratch/aloke/Gau-19805

 Job title:  Energy Optimisation and Frequency calculation


 NATURAL POPULATIONS:  Natural atomic orbital occupancies

  NAO Atom No lang   Type(AO)    Occupancy      Energy
 -------------------------------------------------------
   1    C  1  s      Cor( 1s)     1.99999     -10.20741
   2    C  1  s      Val( 2s)     0.92178      -0.12409
   3    C  1  s      Ryd( 3s)     0.00065       1.57768
   4    C  1  s      Ryd( 4s)     0.00012       1.96833
   5    C  1  s      Ryd( 5s)     0.00000      19.54763
   6    C  1  px     Val( 2p)     1.04204      -0.03643
   7    C  1  px     Ryd( 3p)     0.00505       1.12563
   8    C  1  px     Ryd( 4p)     0.00033       2.28917
   9    C  1  py     Val( 2p)     1.04352      -0.03413
  10    C  1  py     Ryd( 3p)     0.00302       1.03168
  11    C  1  py     Ryd( 4p)     0.00022       2.08892
  12    C  1  pz     Val( 2p)     0.99556      -0.12159
  13    C  1  pz     Ryd( 3p)     0.00184       0.74988
  14    C  1  pz     Ryd( 4p)     0.00010       1.48752
  15    C  1  dxy    Ryd( 3d)     0.00098       2.88568
  16    C  1  dxy    Ryd( 4d)     0.00059       3.94290
  17    C  1  dxz    Ryd( 3d)     0.00039       1.66426
  18    C  1  dxz    Ryd( 4d)     0.00025       3.41596
  19    C  1  dyz    Ryd( 3d)     0.00034       1.80359
  20    C  1  dyz    Ryd( 4d)     0.00021       3.44659
  21    C  1  dx2y2  Ryd( 3d)     0.00115       2.80612
  22    C  1  dx2y2  Ryd( 4d)     0.00068       4.06089
  23    C  1  dz2    Ryd( 3d)     0.00087       3.15353
  24    C  1  dz2    Ryd( 4d)     0.00006       3.69666
  25    C  1  f(0)   Ryd( 4f)     0.00041       3.32353
  26    C  1  f(c1)  Ryd( 4f)     0.00038       3.35258
  27    C  1  f(s1)  Ryd( 4f)     0.00033       3.37485
  28    C  1  f(c2)  Ryd( 4f)     0.00007       3.38936
  29    C  1  f(s2)  Ryd( 4f)     0.00008       3.38025
  30    C  1  f(c3)  Ryd( 4f)     0.00011       3.80372
  31    C  1  f(s3)  Ryd( 4f)     0.00071       3.92903

  32    C  2  s      Cor( 1s)     1.99999     -10.20412
  33    C  2  s      Val( 2s)     0.96437      -0.13769
  34    C  2  s      Ryd( 3s)     0.00061       2.29498
  35    C  2  s      Ryd( 4s)     0.00008       3.04696
  36    C  2  s      Ryd( 5s)     0.00000      17.77445
  37    C  2  px     Val( 2p)     1.03409      -0.03702
  38    C  2  px     Ryd( 3p)     0.00215       0.98311
  39    C  2  px     Ryd( 4p)     0.00012       2.02777
  40    C  2  py     Val( 2p)     1.16456      -0.07064
  41    C  2  py     Ryd( 3p)     0.00388       1.19156
  42    C  2  py     Ryd( 4p)     0.00015       2.09564
  43    C  2  pz     Val( 2p)     0.98671      -0.12990
  44    C  2  pz     Ryd( 3p)     0.00129       0.71973
  45    C  2  pz     Ryd( 4p)     0.00018       1.28202
  46    C  2  dxy    Ryd( 3d)     0.00187       2.03297
  47    C  2  dxy    Ryd( 4d)     0.00026       4.05983
  48    C  2  dxz    Ryd( 3d)     0.00044       1.58596
  49    C  2  dxz    Ryd( 4d)     0.00014       3.26324
  50    C  2  dyz    Ryd( 3d)     0.00052       1.58545
  51    C  2  dyz    Ryd( 4d)     0.00007       3.00865
  52    C  2  dx2y2  Ryd( 3d)     0.00082       2.29886
  53    C  2  dx2y2  Ryd( 4d)     0.00074       3.93591
  54    C  2  dz2    Ryd( 3d)     0.00118       2.01945
  55    C  2  dz2    Ryd( 4d)     0.00002       3.42007
  56    C  2  f(0)   Ryd( 4f)     0.00045       3.23684
  57    C  2  f(c1)  Ryd( 4f)     0.00031       3.43028
  58    C  2  f(s1)  Ryd( 4f)     0.00037       3.25537
  59    C  2  f(c2)  Ryd( 4f)     0.00014       3.35372
  60    C  2  f(s2)  Ryd( 4f)     0.00005       3.31427
  61    C  2  f(c3)  Ryd( 4f)     0.00019       3.69816
  62    C  2  f(s3)  Ryd( 4f)     0.00062       3.93204

  63    C  3  s      Cor( 1s)     1.99999     -10.23605
  64    C  3  s      Val( 2s)     0.92650      -0.13551
  65    C  3  s      Ryd( 3s)     0.00092       1.44046
  66    C  3  s      Ryd( 4s)     0.00025       2.63654
  67    C  3  s      Ryd( 5s)     0.00000      17.85186
  68    C  3  px     Val( 2p)     1.03998      -0.05996
  69    C  3  px     Ryd( 3p)     0.00541       1.12094
  70    C  3  px     Ryd( 4p)     0.00035       2.45912
  71    C  3  py     Val( 2p)     1.07117      -0.05920
  72    C  3  py     Ryd( 3p)     0.00355       1.02142
  73    C  3  py     Ryd( 4p)     0.00035       1.98808
  74    C  3  pz     Val( 2p)     1.08019      -0.13930
  75    C  3  pz     Ryd( 3p)     0.00141       0.69189
  76    C  3  pz     Ryd( 4p)     0.00010       1.36510
  77    C  3  dxy    Ryd( 3d)     0.00088       3.01846
  78    C  3  dxy    Ryd( 4d)     0.00061       4.10564
  79    C  3  dxz    Ryd( 3d)     0.00031       1.87967
  80    C  3  dxz    Ryd( 4d)     0.00012       3.14007
  81    C  3  dyz    Ryd( 3d)     0.00038       1.97162
  82    C  3  dyz    Ryd( 4d)     0.00012       3.19150
  83    C  3  dx2y2  Ryd( 3d)     0.00080       2.94516
  84    C  3  dx2y2  Ryd( 4d)     0.00045       3.97409
  85    C  3  dz2    Ryd( 3d)     0.00089       3.03113
  86    C  3  dz2    Ryd( 4d)     0.00004       3.44141
  87    C  3  f(0)   Ryd( 4f)     0.00040       3.33347
  88    C  3  f(c1)  Ryd( 4f)     0.00032       3.36929
  89    C  3  f(s1)  Ryd( 4f)     0.00033       3.36982
  90    C  3  f(c2)  Ryd( 4f)     0.00011       3.38392
  91    C  3  f(s2)  Ryd( 4f)     0.00009       3.40995
  92    C  3  f(c3)  Ryd( 4f)     0.00012       3.82680
  93    C  3  f(s3)  Ryd( 4f)     0.00049       3.98638

  94    C  4  s      Cor( 1s)     1.99999     -10.20597
  95    C  4  s      Val( 2s)     0.96837      -0.14243
  96    C  4  s      Ryd( 3s)     0.00069       1.68230
  97    C  4  s      Ryd( 4s)     0.00002       2.61013
  98    C  4  s      Ryd( 5s)     0.00000      20.24756
  99    C  4  px     Val( 2p)     1.14136      -0.06293
 100    C  4  px     Ryd( 3p)     0.00338       1.12053
 101    C  4  px     Ryd( 4p)     0.00011       1.98571
 102    C  4  py     Val( 2p)     1.05721      -0.04774
 103    C  4  py     Ryd( 3p)     0.00323       0.98575
 104    C  4  py     Ryd( 4p)     0.00015       1.91376
 105    C  4  pz     Val( 2p)     0.98442      -0.12994
 106    C  4  pz     Ryd( 3p)     0.00149       0.68938
 107    C  4  pz     Ryd( 4p)     0.00016       1.27865
 108    C  4  dxy    Ryd( 3d)     0.00087       2.14094
 109    C  4  dxy    Ryd( 4d)     0.00058       3.95961
 110    C  4  dxz    Ryd( 3d)     0.00039       1.58591
 111    C  4  dxz    Ryd( 4d)     0.00012       2.97295
 112    C  4  dyz    Ryd( 3d)     0.00053       1.61862
 113    C  4  dyz    Ryd( 4d)     0.00011       3.15097
 114    C  4  dx2y2  Ryd( 3d)     0.00152       2.10131
 115    C  4  dx2y2  Ryd( 4d)     0.00038       3.97256
 116    C  4  dz2    Ryd( 3d)     0.00119       1.91129
 117    C  4  dz2    Ryd( 4d)     0.00002       3.34531
 118    C  4  f(0)   Ryd( 4f)     0.00042       3.25563
 119    C  4  f(c1)  Ryd( 4f)     0.00035       3.31669
 120    C  4  f(s1)  Ryd( 4f)     0.00031       3.35969
 121    C  4  f(c2)  Ryd( 4f)     0.00008       3.33240
 122    C  4  f(s2)  Ryd( 4f)     0.00012       3.34551
 123    C  4  f(c3)  Ryd( 4f)     0.00017       3.66253
 124    C  4  f(s3)  Ryd( 4f)     0.00057       3.92858

 125    C  5  s      Cor( 1s)     1.99999     -10.19903
 126    C  5  s      Val( 2s)     0.97441      -0.14606
 127    C  5  s      Ryd( 3s)     0.00091       1.69639
 128    C  5  s      Ryd( 4s)     0.00006       1.70398
 129    C  5  s      Ryd( 5s)     0.00000      20.72097
 130    C  5  px     Val( 2p)     1.04794      -0.03949
 131    C  5  px     Ryd( 3p)     0.00218       0.93610
 132    C  5  px     Ryd( 4p)     0.00015       1.89945
 133    C  5  py     Val( 2p)     1.16206      -0.06923
 134    C  5  py     Ryd( 3p)     0.00351       1.15487
 135    C  5  py     Ryd( 4p)     0.00029       1.98069
 136    C  5  pz     Val( 2p)     1.03478      -0.13220
 137    C  5  pz     Ryd( 3p)     0.00192       0.68690
 138    C  5  pz     Ryd( 4p)     0.00019       1.30281
 139    C  5  dxy    Ryd( 3d)     0.00194       2.17127
 140    C  5  dxy    Ryd( 4d)     0.00019       3.93769
 141    C  5  dxz    Ryd( 3d)     0.00034       1.61991
 142    C  5  dxz    Ryd( 4d)     0.00015       3.25684
 143    C  5  dyz    Ryd( 3d)     0.00050       1.62652
 144    C  5  dyz    Ryd( 4d)     0.00008       2.99208
 145    C  5  dx2y2  Ryd( 3d)     0.00078       2.25071
 146    C  5  dx2y2  Ryd( 4d)     0.00071       3.91977
 147    C  5  dz2    Ryd( 3d)     0.00119       1.97789
 148    C  5  dz2    Ryd( 4d)     0.00002       3.39106
 149    C  5  f(0)   Ryd( 4f)     0.00045       3.25057
 150    C  5  f(c1)  Ryd( 4f)     0.00030       3.43598
 151    C  5  f(s1)  Ryd( 4f)     0.00036       3.25833
 152    C  5  f(c2)  Ryd( 4f)     0.00013       3.34728
 153    C  5  f(s2)  Ryd( 4f)     0.00006       3.33002
 154    C  5  f(c3)  Ryd( 4f)     0.00016       3.68621
 155    C  5  f(s3)  Ryd( 4f)     0.00061       3.95221

 156    C  6  s      Cor( 1s)     1.99999     -10.23417
 157    C  6  s      Val( 2s)     0.87978      -0.11435
 158    C  6  s      Ryd( 3s)     0.00103       1.44532
 159    C  6  s      Ryd( 4s)     0.00015       1.69049
 160    C  6  s      Ryd( 5s)     0.00000      20.87067
 161    C  6  px     Val( 2p)     0.93370      -0.01925
 162    C  6  px     Ryd( 3p)     0.00367       1.09761
 163    C  6  px     Ryd( 4p)     0.00053       1.93375
 164    C  6  py     Val( 2p)     1.01346      -0.03611
 165    C  6  py     Ryd( 3p)     0.00358       0.96843
 166    C  6  py     Ryd( 4p)     0.00037       1.99728
 167    C  6  pz     Val( 2p)     0.98432      -0.12766
 168    C  6  pz     Ryd( 3p)     0.00280       0.72035
 169    C  6  pz     Ryd( 4p)     0.00017       1.47208
 170    C  6  dxy    Ryd( 4d)     0.00078       3.31732
 171    C  6  dxy    Ryd( 3d)     0.00104       4.16106
 172    C  6  dxz    Ryd( 3d)     0.00054       1.93865
 173    C  6  dxz    Ryd( 4d)     0.00029       3.26592
 174    C  6  dyz    Ryd( 3d)     0.00037       1.91595
 175    C  6  dyz    Ryd( 4d)     0.00019       3.27798
 176    C  6  dx2y2  Ryd( 3d)     0.00122       2.86601
 177    C  6  dx2y2  Ryd( 4d)     0.00082       4.07990
 178    C  6  dz2    Ryd( 3d)     0.00060       3.09980
 179    C  6  dz2    Ryd( 4d)     0.00011       3.47544
 180    C  6  f(0)   Ryd( 4f)     0.00035       3.36796
 181    C  6  f(c1)  Ryd( 4f)     0.00026       3.42977
 182    C  6  f(s1)  Ryd( 4f)     0.00028       3.38459
 183    C  6  f(c2)  Ryd( 4f)     0.00010       3.40490
 184    C  6  f(s2)  Ryd( 4f)     0.00010       3.45696
 185    C  6  f(c3)  Ryd( 4f)     0.00011       3.85891
 186    C  6  f(s3)  Ryd( 4f)     0.00060       3.90760

 187    H  7  s      Val( 1s)     0.77719       0.03065
 188    H  7  s      Ryd( 2s)     0.00047       0.94161
 189    H  7  s      Ryd( 3s)     0.00008       1.75353
 190    H  7  px     Ryd( 2p)     0.00006       2.55743
 191    H  7  py     Ryd( 2p)     0.00080       2.83052
 192    H  7  pz     Ryd( 2p)     0.00017       2.14770

 193    H  8  s      Val( 1s)     0.77302       0.03124
 194    H  8  s      Ryd( 2s)     0.00030       0.74725
 195    H  8  s      Ryd( 3s)     0.00009       1.94341
 196    H  8  px     Ryd( 2p)     0.00058       2.76382
 197    H  8  py     Ryd( 2p)     0.00020       2.61820
 198    H  8  pz     Ryd( 2p)     0.00016       2.16057

 199    H  9  s      Val( 1s)     0.78068       0.02911
 200    H  9  s      Ryd( 2s)     0.00092       0.75094
 201    H  9  s      Ryd( 3s)     0.00009       1.89836
 202    H  9  px     Ryd( 2p)     0.00007       2.56985
 203    H  9  py     Ryd( 2p)     0.00081       2.82888
 204    H  9  pz     Ryd( 2p)     0.00018       2.15172

 205    N 10  s      Cor( 1s)     1.99999     -14.34294
 206    N 10  s      Val( 2s)     1.25452      -0.42888
 207    N 10  s      Ryd( 3s)     0.00102       1.52623
 208    N 10  s      Ryd( 4s)     0.00007       5.53371
 209    N 10  s      Ryd( 5s)     0.00000      25.36387
 210    N 10  px     Val( 2p)     1.45155      -0.20982
 211    N 10  px     Ryd( 3p)     0.00497       0.67167
 212    N 10  px     Ryd( 4p)     0.00023       2.87317
 213    N 10  py     Val( 2p)     1.44214      -0.21230
 214    N 10  py     Ryd( 3p)     0.00548       0.88786
 215    N 10  py     Ryd( 4p)     0.00015       2.83914
 216    N 10  pz     Val( 2p)     1.26214      -0.19888
 217    N 10  pz     Ryd( 3p)     0.00295       0.78560
 218    N 10  pz     Ryd( 4p)     0.00011       2.80521
 219    N 10  dxy    Ryd( 3d)     0.00179       2.63185
 220    N 10  dxy    Ryd( 4d)     0.00013       5.29477
 221    N 10  dxz    Ryd( 3d)     0.00060       1.92911
 222    N 10  dxz    Ryd( 4d)     0.00019       4.93322
 223    N 10  dyz    Ryd( 3d)     0.00182       2.11820
 224    N 10  dyz    Ryd( 4d)     0.00012       5.08273
 225    N 10  dx2y2  Ryd( 3d)     0.00200       2.10693
 226    N 10  dx2y2  Ryd( 4d)     0.00016       4.98310
 227    N 10  dz2    Ryd( 3d)     0.00184       2.04674
 228    N 10  dz2    Ryd( 4d)     0.00014       5.14041
 229    N 10  f(0)   Ryd( 4f)     0.00008       4.76031
 230    N 10  f(c1)  Ryd( 4f)     0.00011       4.70526
 231    N 10  f(s1)  Ryd( 4f)     0.00010       4.84750
 232    N 10  f(c2)  Ryd( 4f)     0.00007       4.62725
 233    N 10  f(s2)  Ryd( 4f)     0.00012       4.64679
 234    N 10  f(c3)  Ryd( 4f)     0.00010       4.83527
 235    N 10  f(s3)  Ryd( 4f)     0.00017       4.63681

 236    C 11  s      Cor( 1s)     1.99999     -10.21289
 237    C 11  s      Val( 2s)     1.08472      -0.23133
 238    C 11  s      Ryd( 3s)     0.00084       1.41745
 239    C 11  s      Ryd( 4s)     0.00003       1.71289
 240    C 11  s      Ryd( 5s)     0.00000      21.62062
 241    C 11  px     Val( 2p)     1.20474      -0.12861
 242    C 11  px     Ryd( 3p)     0.00173       0.73926
 243    C 11  px     Ryd( 4p)     0.00025       1.56962
 244    C 11  py     Val( 2p)     1.02129      -0.09814
 245    C 11  py     Ryd( 3p)     0.00124       0.63649
 246    C 11  py     Ryd( 4p)     0.00020       1.50833
 247    C 11  pz     Val( 2p)     1.07722      -0.11200
 248    C 11  pz     Ryd( 3p)     0.00163       0.64316
 249    C 11  pz     Ryd( 4p)     0.00009       1.52832
 250    C 11  dxy    Ryd( 3d)     0.00104       2.05336
 251    C 11  dxy    Ryd( 4d)     0.00006       2.70979
 252    C 11  dxz    Ryd( 3d)     0.00062       1.98521
 253    C 11  dxz    Ryd( 4d)     0.00006       2.51191
 254    C 11  dyz    Ryd( 3d)     0.00092       2.89928
 255    C 11  dyz    Ryd( 4d)     0.00009       2.89082
 256    C 11  dx2y2  Ryd( 3d)     0.00105       2.34531
 257    C 11  dx2y2  Ryd( 4d)     0.00004       2.76766
 258    C 11  dz2    Ryd( 3d)     0.00113       2.05488
 259    C 11  dz2    Ryd( 4d)     0.00006       2.83392
 260    C 11  f(0)   Ryd( 4f)     0.00012       3.46227
 261    C 11  f(c1)  Ryd( 4f)     0.00011       3.50907
 262    C 11  f(s1)  Ryd( 4f)     0.00021       3.59269
 263    C 11  f(c2)  Ryd( 4f)     0.00013       3.36798
 264    C 11  f(s2)  Ryd( 4f)     0.00006       3.45639
 265    C 11  f(c3)  Ryd( 4f)     0.00019       3.58076
 266    C 11  f(s3)  Ryd( 4f)     0.00010       3.40509

 267    H 12  s      Val( 1s)     0.83213      -0.00521
 268    H 12  s      Ryd( 2s)     0.00285       0.53399
 269    H 12  s      Ryd( 3s)     0.00004       2.08381
 270    H 12  px     Ryd( 2p)     0.00023       2.29589
 271    H 12  py     Ryd( 2p)     0.00052       2.64963
 272    H 12  pz     Ryd( 2p)     0.00014       2.19076

 273    H 13  s      Val( 1s)     0.79742       0.01127
 274    H 13  s      Ryd( 2s)     0.00065       0.73161
 275    H 13  s      Ryd( 3s)     0.00004       1.75715
 276    H 13  px     Ryd( 2p)     0.00078       2.68248
 277    H 13  py     Ryd( 2p)     0.00013       2.23801
 278    H 13  pz     Ryd( 2p)     0.00009       2.16146

 279    H 14  s      Val( 1s)     0.79414       0.01251
 280    H 14  s      Ryd( 2s)     0.00048       0.51047
 281    H 14  s      Ryd( 3s)     0.00005       2.02949
 282    H 14  px     Ryd( 2p)     0.00013       2.17803
 283    H 14  py     Ryd( 2p)     0.00013       2.21492
 284    H 14  pz     Ryd( 2p)     0.00066       2.75759

 285    C 15  s      Cor( 1s)     1.99999     -10.21251
 286    C 15  s      Val( 2s)     1.08894      -0.23202
 287    C 15  s      Ryd( 3s)     0.00099       1.31874
 288    C 15  s      Ryd( 4s)     0.00004       1.86490
 289    C 15  s      Ryd( 5s)     0.00000      21.61342
 290    C 15  px     Val( 2p)     1.16928      -0.12282
 291    C 15  px     Ryd( 3p)     0.00139       0.70926
 292    C 15  px     Ryd( 4p)     0.00019       1.50786
 293    C 15  py     Val( 2p)     1.18305      -0.12301
 294    C 15  py     Ryd( 3p)     0.00142       0.64583
 295    C 15  py     Ryd( 4p)     0.00017       1.49652
 296    C 15  pz     Val( 2p)     0.94019      -0.08974
 297    C 15  pz     Ryd( 3p)     0.00126       0.61973
 298    C 15  pz     Ryd( 4p)     0.00020       1.51361
 299    C 15  dxy    Ryd( 3d)     0.00096       2.02483
 300    C 15  dxy    Ryd( 4d)     0.00006       2.70079
 301    C 15  dxz    Ryd( 3d)     0.00063       2.29797
 302    C 15  dxz    Ryd( 4d)     0.00005       2.58698
 303    C 15  dyz    Ryd( 3d)     0.00134       2.18841
 304    C 15  dyz    Ryd( 4d)     0.00009       2.95782
 305    C 15  dx2y2  Ryd( 3d)     0.00110       2.04134
 306    C 15  dx2y2  Ryd( 4d)     0.00003       2.73381
 307    C 15  dz2    Ryd( 3d)     0.00077       2.65557
 308    C 15  dz2    Ryd( 4d)     0.00010       2.85643
 309    C 15  f(0)   Ryd( 4f)     0.00016       3.59184
 310    C 15  f(c1)  Ryd( 4f)     0.00015       3.56802
 311    C 15  f(s1)  Ryd( 4f)     0.00015       3.48957
 312    C 15  f(c2)  Ryd( 4f)     0.00012       3.52833
 313    C 15  f(s2)  Ryd( 4f)     0.00008       3.46837
 314    C 15  f(c3)  Ryd( 4f)     0.00016       3.39934
 315    C 15  f(s3)  Ryd( 4f)     0.00011       3.34481

 316    H 16  s      Val( 1s)     0.82684      -0.00008
 317    H 16  s      Ryd( 2s)     0.00299       0.51702
 318    H 16  s      Ryd( 3s)     0.00003       2.04225
 319    H 16  px     Ryd( 2p)     0.00025       2.30047
 320    H 16  py     Ryd( 2p)     0.00042       2.50961
 321    H 16  pz     Ryd( 2p)     0.00020       2.33305

 322    H 17  s      Val( 1s)     0.80129       0.01125
 323    H 17  s      Ryd( 2s)     0.00067       0.65279
 324    H 17  s      Ryd( 3s)     0.00003       1.81460
 325    H 17  px     Ryd( 2p)     0.00083       2.71489
 326    H 17  py     Ryd( 2p)     0.00012       2.16117
 327    H 17  pz     Ryd( 2p)     0.00009       2.19928

 328    H 18  s      Val( 1s)     0.79490       0.01770
 329    H 18  s      Ryd( 2s)     0.00045       0.72488
 330    H 18  s      Ryd( 3s)     0.00004       1.90404
 331    H 18  px     Ryd( 2p)     0.00008       2.14331
 332    H 18  py     Ryd( 2p)     0.00048       2.50836
 333    H 18  pz     Ryd( 2p)     0.00039       2.56334

 334    C 19  s      Cor( 1s)     1.99999     -10.19226
 335    C 19  s      Val( 2s)     1.04214      -0.20163
 336    C 19  s      Ryd( 3s)     0.00122       1.66267
 337    C 19  s      Ryd( 4s)     0.00006       2.07947
 338    C 19  s      Ryd( 5s)     0.00000      20.99956
 339    C 19  px     Val( 2p)     1.07456      -0.08625
 340    C 19  px     Ryd( 3p)     0.00375       0.86265
 341    C 19  px     Ryd( 4p)     0.00013       1.80378
 342    C 19  py     Val( 2p)     1.17662      -0.10692
 343    C 19  py     Ryd( 3p)     0.00361       0.96141
 344    C 19  py     Ryd( 4p)     0.00012       1.68546
 345    C 19  pz     Val( 2p)     1.09796      -0.09696
 346    C 19  pz     Ryd( 3p)     0.00098       0.63351
 347    C 19  pz     Ryd( 4p)     0.00020       1.60477
 348    C 19  dxy    Ryd( 3d)     0.00114       2.39013
 349    C 19  dxy    Ryd( 4d)     0.00017       3.46494
 350    C 19  dxz    Ryd( 3d)     0.00089       2.07979
 351    C 19  dxz    Ryd( 4d)     0.00018       3.54429
 352    C 19  dyz    Ryd( 3d)     0.00064       1.85640
 353    C 19  dyz    Ryd( 4d)     0.00020       3.15939
 354    C 19  dx2y2  Ryd( 3d)     0.00062       2.14551
 355    C 19  dx2y2  Ryd( 4d)     0.00026       3.36680
 356    C 19  dz2    Ryd( 3d)     0.00080       2.10765
 357    C 19  dz2    Ryd( 4d)     0.00014       3.32821
 358    C 19  f(0)   Ryd( 4f)     0.00007       3.54271
 359    C 19  f(c1)  Ryd( 4f)     0.00029       3.63878
 360    C 19  f(s1)  Ryd( 4f)     0.00001       3.39687
 361    C 19  f(c2)  Ryd( 4f)     0.00010       3.54246
 362    C 19  f(s2)  Ryd( 4f)     0.00017       3.69259
 363    C 19  f(c3)  Ryd( 4f)     0.00006       3.62460
 364    C 19  f(s3)  Ryd( 4f)     0.00024       3.54905

 365    H 20  s      Val( 1s)     0.78035       0.02741
 366    H 20  s      Ryd( 2s)     0.00081       0.72027
 367    H 20  s      Ryd( 3s)     0.00003       1.93687
 368    H 20  px     Ryd( 2p)     0.00011       2.39252
 369    H 20  py     Ryd( 2p)     0.00073       2.73730
 370    H 20  pz     Ryd( 2p)     0.00023       2.41107

 371    H 21  s      Val( 1s)     0.77400       0.03204
 372    H 21  s      Ryd( 2s)     0.00124       0.66299
 373    H 21  s      Ryd( 3s)     0.00004       2.09790
 374    H 21  px     Ryd( 2p)     0.00041       2.60601
 375    H 21  py     Ryd( 2p)     0.00021       2.37761
 376    H 21  pz     Ryd( 2p)     0.00045       2.69426

 377    C 22  s      Cor( 1s)     1.99999     -10.19565
 378    C 22  s      Val( 2s)     1.08876      -0.23732
 379    C 22  s      Ryd( 3s)     0.00083       1.23389
 380    C 22  s      Ryd( 4s)     0.00004       2.71968
 381    C 22  s      Ryd( 5s)     0.00001      19.94166
 382    C 22  px     Val( 2p)     1.08802      -0.10837
 383    C 22  px     Ryd( 3p)     0.00122       0.69047
 384    C 22  px     Ryd( 4p)     0.00014       1.73540
 385    C 22  py     Val( 2p)     1.18679      -0.12607
 386    C 22  py     Ryd( 3p)     0.00074       0.71968
 387    C 22  py     Ryd( 4p)     0.00008       1.59326
 388    C 22  pz     Val( 2p)     1.11871      -0.10694
 389    C 22  pz     Ryd( 3p)     0.00158       0.59565
 390    C 22  pz     Ryd( 4p)     0.00023       1.65808
 391    C 22  dxy    Ryd( 3d)     0.00127       1.96552
 392    C 22  dxy    Ryd( 4d)     0.00006       3.29483
 393    C 22  dxz    Ryd( 3d)     0.00093       2.01334
 394    C 22  dxz    Ryd( 4d)     0.00016       3.58292
 395    C 22  dyz    Ryd( 3d)     0.00112       1.82932
 396    C 22  dyz    Ryd( 4d)     0.00013       3.23358
 397    C 22  dx2y2  Ryd( 3d)     0.00070       1.85016
 398    C 22  dx2y2  Ryd( 4d)     0.00010       3.20884
 399    C 22  dz2    Ryd( 3d)     0.00105       1.98247
 400    C 22  dz2    Ryd( 4d)     0.00013       3.28072
 401    C 22  f(0)   Ryd( 4f)     0.00009       3.50250
 402    C 22  f(c1)  Ryd( 4f)     0.00051       3.53072
 403    C 22  f(s1)  Ryd( 4f)     0.00004       3.37679
 404    C 22  f(c2)  Ryd( 4f)     0.00014       3.46920
 405    C 22  f(s2)  Ryd( 4f)     0.00019       3.62162
 406    C 22  f(c3)  Ryd( 4f)     0.00002       3.37359
 407    C 22  f(s3)  Ryd( 4f)     0.00026       3.52846

 408    H 23  s      Val( 1s)     0.75682       0.01262
 409    H 23  s      Ryd( 2s)     0.00081       0.85555
 410    H 23  s      Ryd( 3s)     0.00004       1.92202
 411    H 23  px     Ryd( 2p)     0.00010       2.33361
 412    H 23  py     Ryd( 2p)     0.00072       2.69310
 413    H 23  pz     Ryd( 2p)     0.00020       2.45346

 414    H 24  s      Val( 1s)     0.77451       0.00111
 415    H 24  s      Ryd( 2s)     0.00063       0.70330
 416    H 24  s      Ryd( 3s)     0.00002       1.88142
 417    H 24  px     Ryd( 2p)     0.00032       2.49995
 418    H 24  py     Ryd( 2p)     0.00020       2.34564
 419    H 24  pz     Ryd( 2p)     0.00045       2.59739

 420    C 25  s      Cor( 1s)     1.99999     -10.27168
 421    C 25  s      Val( 2s)     0.95432      -0.18893
 422    C 25  s      Ryd( 3s)     0.00954       1.18158
 423    C 25  s      Ryd( 4s)     0.00006       1.02462
 424    C 25  s      Ryd( 5s)     0.00001      22.14669
 425    C 25  px     Val( 2p)     0.91548      -0.06689
 426    C 25  px     Ryd( 3p)     0.00386       1.02737
 427    C 25  px     Ryd( 4p)     0.00013       1.08919
 428    C 25  py     Val( 2p)     0.74101      -0.11072
 429    C 25  py     Ryd( 3p)     0.00226       0.93460
 430    C 25  py     Ryd( 4p)     0.00019       0.88606
 431    C 25  pz     Val( 2p)     0.91809      -0.03142
 432    C 25  pz     Ryd( 3p)     0.00871       1.17644
 433    C 25  pz     Ryd( 4p)     0.00029       1.12186
 434    C 25  dxy    Ryd( 3d)     0.00060       2.89072
 435    C 25  dxy    Ryd( 4d)     0.00008       2.14899
 436    C 25  dxz    Ryd( 3d)     0.00133       2.87276
 437    C 25  dxz    Ryd( 4d)     0.00033       2.43129
 438    C 25  dyz    Ryd( 3d)     0.00079       2.73945
 439    C 25  dyz    Ryd( 4d)     0.00024       2.01069
 440    C 25  dx2y2  Ryd( 3d)     0.00055       2.73074
 441    C 25  dx2y2  Ryd( 4d)     0.00003       2.04429
 442    C 25  dz2    Ryd( 3d)     0.00156       2.96591
 443    C 25  dz2    Ryd( 4d)     0.00038       2.29813
 444    C 25  f(0)   Ryd( 4f)     0.00013       3.50088
 445    C 25  f(c1)  Ryd( 4f)     0.00039       3.71453
 446    C 25  f(s1)  Ryd( 4f)     0.00014       3.29990
 447    C 25  f(c2)  Ryd( 4f)     0.00006       3.37035
 448    C 25  f(s2)  Ryd( 4f)     0.00007       3.38417
 449    C 25  f(c3)  Ryd( 4f)     0.00007       3.27074
 450    C 25  f(s3)  Ryd( 4f)     0.00023       3.23845

 451    H 26  s      Val( 1s)     0.89553      -0.04354
 452    H 26  s      Ryd( 2s)     0.00303       0.44601
 453    H 26  s      Ryd( 3s)     0.00009       2.12643
 454    H 26  px     Ryd( 2p)     0.00038       2.40638
 455    H 26  py     Ryd( 2p)     0.00010       2.09702
 456    H 26  pz     Ryd( 2p)     0.00061       2.66850

 457    O 27  s      Cor( 1s)     1.99999     -19.13642
 458    O 27  s      Val( 2s)     1.70327      -0.69331
 459    O 27  s      Ryd( 3s)     0.00052       1.29300
 460    O 27  s      Ryd( 4s)     0.00002       4.71041
 461    O 27  s      Ryd( 5s)     0.00000      41.73200
 462    O 27  px     Val( 2p)     1.71632      -0.27913
 463    O 27  px     Ryd( 3p)     0.00242       0.66645
 464    O 27  px     Ryd( 4p)     0.00005       3.17619
 465    O 27  py     Val( 2p)     1.43629      -0.27087
 466    O 27  py     Ryd( 3p)     0.00092       0.59360
 467    O 27  py     Ryd( 4p)     0.00003       2.99634
 468    O 27  pz     Val( 2p)     1.63323      -0.28790
 469    O 27  pz     Ryd( 3p)     0.00127       0.61460
 470    O 27  pz     Ryd( 4p)     0.00013       3.49189
 471    O 27  dxy    Ryd( 3d)     0.00131       1.69341
 472    O 27  dxy    Ryd( 4d)     0.00001       6.42886
 473    O 27  dxz    Ryd( 3d)     0.00527       1.91320
 474    O 27  dxz    Ryd( 4d)     0.00002       6.56421
 475    O 27  dyz    Ryd( 3d)     0.00486       1.84865
 476    O 27  dyz    Ryd( 4d)     0.00001       6.49857
 477    O 27  dx2y2  Ryd( 3d)     0.00124       1.66777
 478    O 27  dx2y2  Ryd( 4d)     0.00000       6.37724
 479    O 27  dz2    Ryd( 3d)     0.00630       2.05277
 480    O 27  dz2    Ryd( 4d)     0.00004       6.67591
 481    O 27  f(0)   Ryd( 4f)     0.00013       5.94577
 482    O 27  f(c1)  Ryd( 4f)     0.00012       5.84007
 483    O 27  f(s1)  Ryd( 4f)     0.00009       5.77728
 484    O 27  f(c2)  Ryd( 4f)     0.00010       5.58588
 485    O 27  f(s2)  Ryd( 4f)     0.00008       5.62359
 486    O 27  f(c3)  Ryd( 4f)     0.00000       5.26533
 487    O 27  f(s3)  Ryd( 4f)     0.00000       5.28329

 488    C 28  s      Cor( 1s)     1.99998     -10.21707
 489    C 28  s      Val( 2s)     0.88766      -0.09905
 490    C 28  s      Ryd( 3s)     0.00884       2.38751
 491    C 28  s      Ryd( 4s)     0.00004       5.22125
 492    C 28  s      Ryd( 5s)     0.00000      12.41065
 493    C 28  px     Val( 2p)     0.95706       0.05600
 494    C 28  px     Ryd( 3p)     0.01222       0.95627
 495    C 28  px     Ryd( 4p)     0.00040       2.35399
 496    C 28  py     Val( 2p)     0.92748      -0.03856
 497    C 28  py     Ryd( 3p)     0.00601       0.88380
 498    C 28  py     Ryd( 4p)     0.00017       1.68384
 499    C 28  pz     Val( 2p)     0.91505      -0.10059
 500    C 28  pz     Ryd( 3p)     0.00052       0.73701
 501    C 28  pz     Ryd( 4p)     0.00008       1.08815
 502    C 28  dxy    Ryd( 3d)     0.00070       3.66206
 503    C 28  dxy    Ryd( 4d)     0.00019       3.22254
 504    C 28  dxz    Ryd( 3d)     0.00064       3.26989
 505    C 28  dxz    Ryd( 4d)     0.00006       1.63442
 506    C 28  dyz    Ryd( 3d)     0.00024       3.02233
 507    C 28  dyz    Ryd( 4d)     0.00006       1.31246
 508    C 28  dx2y2  Ryd( 3d)     0.00069       3.54707
 509    C 28  dx2y2  Ryd( 4d)     0.00013       2.42592
 510    C 28  dz2    Ryd( 3d)     0.00023       3.18629
 511    C 28  dz2    Ryd( 4d)     0.00006       2.37419
 512    C 28  f(0)   Ryd( 4f)     0.00025       3.00522
 513    C 28  f(c1)  Ryd( 4f)     0.00032       3.23209
 514    C 28  f(s1)  Ryd( 4f)     0.00016       2.92796
 515    C 28  f(c2)  Ryd( 4f)     0.00009       3.09479
 516    C 28  f(s2)  Ryd( 4f)     0.00031       3.20073
 517    C 28  f(c3)  Ryd( 4f)     0.00062       3.61422
 518    C 28  f(s3)  Ryd( 4f)     0.00079       3.57538

 519    N 29  s      Cor( 1s)     1.99999     -14.31538
 520    N 29  s      Val( 2s)     1.58628      -0.37383
 521    N 29  s      Ryd( 3s)     0.00224       2.25793
 522    N 29  s      Ryd( 4s)     0.00002       2.52314
 523    N 29  s      Ryd( 5s)     0.00000      29.26759
 524    N 29  px     Val( 2p)     1.40141      -0.14522
 525    N 29  px     Ryd( 3p)     0.00159       0.56888
 526    N 29  px     Ryd( 4p)     0.00007       4.09665
 527    N 29  py     Val( 2p)     1.20199      -0.14595
 528    N 29  py     Ryd( 3p)     0.00070       0.60586
 529    N 29  py     Ryd( 4p)     0.00003       3.16321
 530    N 29  pz     Val( 2p)     1.10731      -0.14965
 531    N 29  pz     Ryd( 3p)     0.00062       0.60662
 532    N 29  pz     Ryd( 4p)     0.00000       2.48225
 533    N 29  dxy    Ryd( 3d)     0.00780       1.97918
 534    N 29  dxy    Ryd( 4d)     0.00001       5.11170
 535    N 29  dxz    Ryd( 3d)     0.00356       1.48955
 536    N 29  dxz    Ryd( 4d)     0.00001       4.79427
 537    N 29  dyz    Ryd( 3d)     0.00134       1.39789
 538    N 29  dyz    Ryd( 4d)     0.00000       4.50019
 539    N 29  dx2y2  Ryd( 3d)     0.00555       1.69802
 540    N 29  dx2y2  Ryd( 4d)     0.00001       5.08617
 541    N 29  dz2    Ryd( 3d)     0.00279       1.60730
 542    N 29  dz2    Ryd( 4d)     0.00000       4.60403
 543    N 29  f(0)   Ryd( 4f)     0.00010       4.24373
 544    N 29  f(c1)  Ryd( 4f)     0.00007       4.59626
 545    N 29  f(s1)  Ryd( 4f)     0.00004       4.22251
 546    N 29  f(c2)  Ryd( 4f)     0.00003       4.39710
 547    N 29  f(s2)  Ryd( 4f)     0.00014       4.42879
 548    N 29  f(c3)  Ryd( 4f)     0.00023       4.71942
 549    N 29  f(s3)  Ryd( 4f)     0.00015       5.05856

     Population inversion found on atom  C  6
     Population inversion found on atom  C 11
     Population inversion found on atom  C 25
     Population inversion found on atom  C 28


 Summary of Natural Population Analysis:

                                     Natural Population
             Natural    ---------------------------------------------
[...]
  203.  0.00013     2.10029  252.   RY ( 2) H  8
  204.  0.00012     2.75033  151.   RY (10) C  3
  205.  0.00012     1.47134  332.   RY ( 5) C 15
  206.  0.00012     2.19865  365.   RY ( 2) H 18
  207.  0.00012     1.61739  333.   RY ( 6) C 15
  208.  0.00012     2.25288  468.   RY ( 2) H 26
  209.  0.00012     2.12217  376.   RY ( 8) C 19
  210.  0.00012     1.36172  201.   RY ( 8) C  5
  211.  0.00011     2.43179  396.   RY ( 2) H 20
  212.  0.00011     3.26805  268.   RY ( 8) N 10
  213.  0.00011     2.17434  230.   RY (11) C  6
  214.  0.00011     0.94294  445.   RY ( 5) C 25
  215.  0.00010     2.35196  231.   RY (12) C  6
  216.  0.00010     2.35710  437.   RY ( 2) H 24
  217.  0.00010     1.73703  412.   RY ( 8) C 22
  218.  0.00010     2.77885  269.   RY ( 9) N 10
  219.  0.00010     2.56968  152.   RY (11) C  3
  220.  0.00009     2.11589  319.   RY ( 2) H 13
  221.  0.00009     2.09452  324.   RY ( 2) H 14
  222.  0.00009     2.03886  123.   RY ( 8) C  2
  223.  0.00009     1.42999  292.   RY ( 6) C 11
  224.  0.00009     1.86663  377.   RY ( 9) C 19
  225.  0.00009     3.25873  413.   RY ( 9) C 22
  226.  0.00009     1.94384  253.   RY ( 3) H  8
  227.  0.00009     3.01427  124.   RY ( 9) C  2
  228.  0.00009     1.88906  258.   RY ( 3) H  9
  229.  0.00009     2.11692  360.   RY ( 2) H 17
  230.  0.00009     1.78481  248.   RY ( 3) H  7
  231.  0.00009     2.12399  469.   RY ( 3) H 26
  232.  0.00008     3.38607  270.   RY (10) N 10
  233.  0.00009     1.21058  503.   RY ( 6) C 28
  234.  0.00008     2.19039  314.   RY ( 2) H 12
  235.  0.00008     2.31651  438.   RY ( 3) H 24
  236.  0.00008     2.33235  397.   RY ( 3) H 20
  237.  0.00008     2.54759  378.   RY (10) C 19
  238.  0.00008     2.28885  402.   RY ( 3) H 21
  239.  0.00008     3.31372  446.   RY ( 6) C 25
  240.  0.00007     2.28392  101.   RY (12) C  1
  241.  0.00008     2.74506  202.   RY ( 9) C  5
  242.  0.00008     2.12361  315.   RY ( 3) H 12
  243.  0.00008     2.23627  355.   RY ( 2) H 16
  244.  0.00008     2.46840  475.   RY ( 4) O 27
  245.  0.00007     1.52665  293.   RY ( 7) C 11
  246.  0.00007     2.24425  125.   RY (10) C  2
  247.  0.00007     2.38187  504.   RY ( 7) C 28
  248.  0.00007     2.56851  259.   RY ( 4) H  9
  249.  0.00007     2.32367  433.   RY ( 3) H 23
  250.  0.00007     2.17144  325.   RY ( 3) H 14
  251.  0.00007     2.42159  379.   RY (11) C 19
  252.  0.00007     1.79623  505.   RY ( 8) C 28
  253.  0.00007     0.90683  526.   RY ( 3) N 29
  254.  0.00006     1.49788  175.   RY ( 8) C  4
  255.  0.00006     2.11374  361.   RY ( 3) H 17
  256.  0.00006     2.16325  366.   RY ( 3) H 18
  257.  0.00006     2.09643  320.   RY ( 3) H 13
  258.  0.00006     1.78531  334.   RY ( 7) C 15
  259.  0.00006     3.56910  232.   RY (13) C  6
  260.  0.00006     2.10391  356.   RY ( 3) H 16
  261.  0.00006     3.26142  102.   RY (13) C  1
  262.  0.00006     3.48615  126.   RY (11) C  2
  263.  0.00006     1.64013  176.   RY ( 9) C  4
  264.  0.00006     2.52532  249.   RY ( 4) H  7
  265.  0.00005     2.24337  367.   RY ( 4) H 18
  266.  0.00005     2.08022  414.   RY (10) C 22
  267.  0.00005     2.52893  254.   RY ( 4) H  8
  268.  0.00005     1.55891  335.   RY ( 8) C 15
  269.  0.00005     2.65468  103.   RY (14) C  1
  270.  0.00005     2.14296  447.   RY ( 7) C 25
  271.  0.00005     2.74975  271.   RY (11) N 10
  272.  0.00005     1.79391  294.   RY ( 8) C 11
  273.  0.00005     2.40945  380.   RY (12) C 19
  274.  0.00005     2.01991  470.   RY ( 4) H 26
  275.  0.00005     2.50419  403.   RY ( 4) H 21
  276.  0.00004     3.53810  177.   RY (10) C  4
  277.  0.00004     2.19798  233.   RY (14) C  6
  278.  0.00004     2.46603  415.   RY (11) C 22
  279.  0.00004     2.37804  434.   RY ( 4) H 23
  280.  0.00004     2.15550  127.   RY (12) C  2
  281.  0.00004     2.23105  316.   RY ( 4) H 12
  282.  0.00004     2.27615  203.   RY (10) C  5
  283.  0.00004     2.26718  398.   RY ( 4) H 20
  284.  0.00003     2.98614  153.   RY (12) C  3
  285.  0.00003     3.56024  234.   RY (15) C  6
  286.  0.00003     2.15545  321.   RY ( 4) H 13
  287.  0.00003     2.26576  357.   RY ( 4) H 16
  288.  0.00003     2.06043  204.   RY (11) C  5
  289.  0.00003     2.19353  326.   RY ( 4) H 14
  290.  0.00003     1.62674  476.   RY ( 5) O 27
  291.  0.00003     3.15440  272.   RY (12) N 10
  292.  0.00003     2.15392  362.   RY ( 4) H 17
  293.  0.00003     2.42820  439.   RY ( 4) H 24
  294.  0.00002     3.40214  104.   RY (15) C  1
  295.  0.00002     2.95489  235.   RY (16) C  6
  296.  0.00002     1.63959  336.   RY ( 9) C 15
  297.  0.00002     1.34280  448.   RY ( 8) C 25
  298.  0.00002     1.31265  477.   RY ( 6) O 27
  299.  0.00002     2.08086  295.   RY ( 9) C 11
  300.  0.00002     3.41215  381.   RY (13) C 19
  301.  0.00002     2.56076  404.   RY ( 5) H 21
  302.  0.00002     3.28098  506.   RY ( 9) C 28
  303.  0.00002     2.40620  128.   RY (13) C  2
  304.  0.00002     2.35851  205.   RY (12) C  5
  305.  0.00002     2.77148  178.   RY (11) C  4
  306.  0.00002     3.22629  273.   RY (13) N 10
  307.  0.00002     1.67775  296.   RY (10) C 11
  308.  0.00002     2.59325  416.   RY (12) C 22
  309.  0.00002     2.38708  337.   RY (10) C 15
  310.  0.00002     2.77811  382.   RY (14) C 19
  311.  0.00002     3.49096  236.   RY (17) C  6
  312.  0.00002     3.44557  105.   RY (16) C  1
  313.  0.00002     2.57585  179.   RY (12) C  4
  314.  0.00002     3.54938  274.   RY (14) N 10
  315.  0.00002     3.00789  507.   RY (10) C 28
  316.  0.00001     1.49791  527.   RY ( 4) N 29
  317.  0.00001     3.15990  129.   RY (14) C  2
  318.  0.00001     2.24694  206.   RY (13) C  5
  319.  0.00001     2.92904  106.   RY (17) C  1
  320.  0.00001     4.33077  154.   RY (13) C  3
  321.  0.00001     2.87051  250.   RY ( 5) H  7
  322.  0.00001     2.86653  260.   RY ( 5) H  9
  323.  0.00001     2.33611  297.   RY (11) C 11
  324.  0.00001     2.13358  383.   RY (15) C 19
  325.  0.00001     1.42266  478.   RY ( 7) O 27
  326.  0.00001     2.41507  435.   RY ( 5) H 23
  327.  0.00001     2.78782  130.   RY (15) C  2
  328.  0.00001     2.74919  180.   RY (13) C  4
  329.  0.00001     3.94557  207.   RY (14) C  5
  330.  0.00001     4.21983  275.   RY (15) N 10
  331.  0.00001     2.72257  384.   RY (16) C 19
  332.  0.00001     2.43830  399.   RY ( 5) H 20
  333.  0.00001     3.04808  107.   RY (18) C  1
  334.  0.00001     2.78726  155.   RY (14) C  3
  335.  0.00001     1.26388  528.   RY ( 5) N 29
  336.  0.00001     2.89949  255.   RY ( 5) H  8
  337.  0.00001     3.08237  108.   RY (19) C  1
  338.  0.00001     3.81484  131.   RY (16) C  2
  339.  0.00001     2.61019  156.   RY (15) C  3
  340.  0.00000     3.05171  109.   RY (20) C  1
  341.  0.00000     3.29430  110.   RY (21) C  1
  342.  0.00000     2.90101  132.   RY (17) C  2
  343.  0.00000     3.82726  157.   RY (16) C  3
  344.  0.00001     3.07527  181.   RY (14) C  4
  345.  0.00001     2.58656  208.   RY (15) C  5
  346.  0.00001     3.23053  237.   RY (18) C  6
  347.  0.00001     2.86892  417.   RY (13) C 22
  348.  0.00001     2.55054  449.   RY ( 9) C 25
  349.  0.00001     3.98440  508.   RY (11) C 28
  350.  0.00001     2.34406  338.   RY (11) C 15
  351.  0.00001     1.90914  450.   RY (10) C 25
  352.  0.00001     2.88653  471.   RY ( 5) H 26
  353.  0.00000     3.86990  238.   RY (19) C  6
  354.  0.00000     3.38099  158.   RY (17) C  3
  355.  0.00000     5.14573  209.   RY (16) C  5
  356.  0.00000     3.86518  111.   RY (22) C  1
  357.  0.00000     3.21013  112.   RY (23) C  1
  358.  0.00000     6.93099  113.   RY (24) C  1
  359.  0.00000     3.56899  114.   RY (25) C  1
  360.  0.00000    14.94673  115.   RY (26) C  1
  361.  0.00000     3.67954  133.   RY (18) C  2
  362.  0.00000     2.97827  134.   RY (19) C  2
  363.  0.00000     3.32973  135.   RY (20) C  2
  364.  0.00000     3.25703  136.   RY (21) C  2
  365.  0.00000     2.70022  182.   RY (15) C  4
  366.  0.00000     3.35664  137.   RY (22) C  2
  367.  0.00000     8.46775  138.   RY (23) C  2
  368.  0.00000     6.62042  139.   RY (24) C  2
  369.  0.00000     6.46910  140.   RY (25) C  2
  370.  0.00000     2.95055  159.   RY (18) C  3
  371.  0.00000     3.47802  141.   RY (26) C  2
  372.  0.00000     6.59923  160.   RY (19) C  3
  373.  0.00000     2.79272  161.   RY (20) C  3
  374.  0.00000     3.52832  162.   RY (21) C  3
  375.  0.00000     7.33446  163.   RY (22) C  3
  376.  0.00000     3.62302  164.   RY (23) C  3
  377.  0.00000     3.21215  165.   RY (24) C  3
  378.  0.00000     3.43701  166.   RY (25) C  3
  379.  0.00000     7.18073  167.   RY (26) C  3
  380.  0.00000     2.38867  183.   RY (16) C  4
  381.  0.00000     4.33150  184.   RY (17) C  4
  382.  0.00000     5.06405  185.   RY (18) C  4
  383.  0.00000     3.41668  210.   RY (17) C  5
  384.  0.00000     3.83576  239.   RY (20) C  6
  385.  0.00000     4.93148  276.   RY (16) N 10
  386.  0.00000     3.53208  211.   RY (18) C  5
  387.  0.00000     3.45736  240.   RY (21) C  6
  388.  0.00000     3.71658  277.   RY (17) N 10
  389.  0.00000     4.16095  278.   RY (18) N 10
  390.  0.00000     2.32723  298.   RY (12) C 11
  391.  0.00000     2.46033  322.   RY ( 5) H 13
  392.  0.00000     2.64911  327.   RY ( 5) H 14
  393.  0.00000     2.56370  358.   RY ( 5) H 16
  394.  0.00000     4.38911  186.   RY (19) C  4
  395.  0.00000     5.33792  187.   RY (20) C  4
  396.  0.00000     5.06436  188.   RY (21) C  4
  397.  0.00000     8.72635  189.   RY (22) C  4
  398.  0.00000     3.31215  190.   RY (23) C  4
  399.  0.00000     3.30688  191.   RY (24) C  4
  400.  0.00000     2.83555  192.   RY (25) C  4
  401.  0.00000     2.87400  212.   RY (19) C  5
  402.  0.00000     4.74994  193.   RY (26) C  4
  403.  0.00000     3.23186  213.   RY (20) C  5
  404.  0.00000     3.39371  214.   RY (21) C  5
  405.  0.00000     2.71382  215.   RY (22) C  5
  406.  0.00000     3.49249  216.   RY (23) C  5
  407.  0.00000     4.89374  217.   RY (24) C  5
  408.  0.00000     4.65083  218.   RY (25) C  5
  409.  0.00000    13.24714  219.   RY (26) C  5
  410.  0.00000     4.13134  241.   RY (22) C  6
  411.  0.00000     2.50187  242.   RY (23) C  6
  412.  0.00000     3.40633  243.   RY (24) C  6
  413.  0.00000    18.53171  244.   RY (25) C  6
  414.  0.00000     4.40442  245.   RY (26) C  6
  415.  0.00000     4.87940  279.   RY (19) N 10
  416.  0.00000     4.31306  280.   RY (20) N 10
  417.  0.00000    21.29498  281.   RY (21) N 10
  418.  0.00000     4.68339  282.   RY (22) N 10
  419.  0.00000     6.17241  283.   RY (23) N 10
  420.  0.00000     4.42410  284.   RY (24) N 10
  421.  0.00000     5.22033  285.   RY (25) N 10
  422.  0.00000     7.36416  286.   RY (26) N 10
  423.  0.00000     2.62133  299.   RY (13) C 11
  424.  0.00000    15.52052  300.   RY (14) C 11
  425.  0.00000     3.53357  301.   RY (15) C 11
  426.  0.00000     3.20788  302.   RY (16) C 11
  427.  0.00000     3.16297  303.   RY (17) C 11
  428.  0.00000     2.17223  304.   RY (18) C 11
  429.  0.00000     2.29941  305.   RY (19) C 11
  430.  0.00000     2.66577  317.   RY ( 5) H 12
  431.  0.00000     2.69482  339.   RY (12) C 15
  432.  0.00000     1.98090  340.   RY (13) C 15
  433.  0.00000     2.49713  363.   RY ( 5) H 17
  434.  0.00000     3.14806  385.   RY (17) C 19
  435.  0.00001     3.36843  386.   RY (18) C 19
  436.  0.00000     3.65170  418.   RY (14) C 22
  437.  0.00001     2.22685  440.   RY ( 5) H 24
  438.  0.00001     4.33941  509.   RY (12) C 28
  439.  0.00001     3.10071  529.   RY ( 6) N 29
  440.  0.00000     3.09186  306.   RY (20) C 11
  441.  0.00000     3.36034  307.   RY (21) C 11
  442.  0.00000     3.41475  308.   RY (22) C 11
  443.  0.00000     3.14096  309.   RY (23) C 11
  444.  0.00000     3.62287  310.   RY (24) C 11
  445.  0.00000     5.61565  311.   RY (25) C 11
  446.  0.00000     5.98298  312.   RY (26) C 11
  447.  0.00000     3.48719  341.   RY (14) C 15
  448.  0.00000     2.39784  342.   RY (15) C 15
  449.  0.00000    19.05955  343.   RY (16) C 15
  450.  0.00000     2.92809  344.   RY (17) C 15
  451.  0.00000     2.58229  345.   RY (18) C 15
  452.  0.00000     2.75272  346.   RY (19) C 15
  453.  0.00000     2.48516  368.   RY ( 5) H 18
  454.  0.00000     2.63187  387.   RY (19) C 19
  455.  0.00000     2.87166  419.   RY (15) C 22
  456.  0.00000     2.85398  451.   RY (11) C 25
  457.  0.00000     3.71077  479.   RY ( 8) O 27
  458.  0.00000     2.95065  510.   RY (13) C 28
  459.  0.00000     3.42952  347.   RY (20) C 15
  460.  0.00000     4.66883  348.   RY (21) C 15
  461.  0.00000     3.41324  349.   RY (22) C 15
  462.  0.00000     3.08546  350.   RY (23) C 15
  463.  0.00000     3.56671  351.   RY (24) C 15
  464.  0.00000     3.42934  352.   RY (25) C 15
  465.  0.00000     3.27076  353.   RY (26) C 15
  466.  0.00000    19.66827  388.   RY (20) C 19
  467.  0.00000     3.59947  389.   RY (21) C 19
  468.  0.00000     3.42871  390.   RY (22) C 19
  469.  0.00000     3.81531  391.   RY (23) C 19
  470.  0.00000     3.66922  392.   RY (24) C 19
  471.  0.00000     3.39829  393.   RY (25) C 19
  472.  0.00000     3.89176  394.   RY (26) C 19
  473.  0.00000     1.98104  420.   RY (16) C 22
  474.  0.00000     3.00423  421.   RY (17) C 22
  475.  0.00000     2.06236  452.   RY (12) C 25
  476.  0.00000     3.86462  511.   RY (14) C 28
  477.  0.00000     2.35452  530.   RY ( 7) N 29
  478.  0.00000     7.28433  422.   RY (18) C 22
  479.  0.00000     9.98255  423.   RY (19) C 22
  480.  0.00000     3.08310  424.   RY (20) C 22
  481.  0.00000     3.23588  425.   RY (21) C 22
  482.  0.00000     3.39042  426.   RY (22) C 22
  483.  0.00000     3.85022  427.   RY (23) C 22
  484.  0.00000     3.65339  428.   RY (24) C 22
  485.  0.00000     3.49855  429.   RY (25) C 22
  486.  0.00000     5.43210  430.   RY (26) C 22
  487.  0.00000     2.92362  453.   RY (13) C 25
  488.  0.00000     2.06522  454.   RY (14) C 25
  489.  0.00000     1.99718  455.   RY (15) C 25
  490.  0.00000     7.32559  456.   RY (16) C 25
  491.  0.00000     2.67070  457.   RY (17) C 25
  492.  0.00000     3.91810  458.   RY (18) C 25
  493.  0.00000     2.51217  459.   RY (19) C 25
  494.  0.00000     2.70845  460.   RY (20) C 25
  495.  0.00000     3.49356  461.   RY (21) C 25
  496.  0.00000     2.67686  462.   RY (22) C 25
  497.  0.00000     7.84872  463.   RY (23) C 25
  498.  0.00000     5.82812  464.   RY (24) C 25
  499.  0.00000     6.06695  465.   RY (25) C 25
  500.  0.00000     3.65978  466.   RY (26) C 25
  501.  0.00000     3.11768  480.   RY ( 9) O 27
  502.  0.00000     2.76352  481.   RY (10) O 27
  503.  0.00000     2.82611  512.   RY (15) C 28
  504.  0.00000    10.58182  482.   RY (11) O 27
  505.  0.00000     4.25886  483.   RY (12) O 27
  506.  0.00000     9.43061  484.   RY (13) O 27
  507.  0.00000     4.65026  485.   RY (14) O 27
  508.  0.00000    11.17072  486.   RY (15) O 27
  509.  0.00000    12.89400  487.   RY (16) O 27
  510.  0.00000     5.94859  488.   RY (17) O 27
  511.  0.00000     2.50098  489.   RY (18) O 27
  512.  0.00000     7.48864  490.   RY (19) O 27
  513.  0.00000     5.94450  491.   RY (20) O 27
  514.  0.00000     9.65934  492.   RY (21) O 27
  515.  0.00000     5.91256  493.   RY (22) O 27
  516.  0.00000     7.92845  494.   RY (23) O 27
  517.  0.00000     8.01782  495.   RY (24) O 27
  518.  0.00000     8.16532  496.   RY (25) O 27
  519.  0.00000     6.26053  497.   RY (26) O 27
  520.  0.00000     6.61507  513.   RY (16) C 28
  521.  0.00000     2.82079  514.   RY (17) C 28
  522.  0.00000     2.83327  515.   RY (18) C 28
  523.  0.00000     5.57100  516.   RY (19) C 28
  524.  0.00000     2.87542  517.   RY (20) C 28
  525.  0.00000     3.45054  531.   RY ( 8) N 29
  526.  0.00000     1.69717  532.   RY ( 9) N 29
  527.  0.00000     3.38953  533.   RY (10) N 29
  528.  0.00000     3.44327  518.   RY (21) C 28
  529.  0.00000     3.06495  519.   RY (22) C 28
  530.  0.00000     2.72721  520.   RY (23) C 28
  531.  0.00000     2.93032  521.   RY (24) C 28
  532.  0.00000     2.69421  522.   RY (25) C 28
  533.  0.00000     2.92780  523.   RY (26) C 28
  534.  0.00000     7.84941  534.   RY (11) N 29
  535.  0.00000    11.88540  535.   RY (12) N 29
  536.  0.00000     4.31321  536.   RY (13) N 29
  537.  0.00000     4.83067  537.   RY (14) N 29
  538.  0.00000     3.31019  538.   RY (15) N 29
  539.  0.00000     4.86047  539.   RY (16) N 29
  540.  0.00000     4.58512  540.   RY (17) N 29
  541.  0.00000     4.88517  541.   RY (18) N 29
  542.  0.00000     4.55266  542.   RY (19) N 29
  543.  0.00000    10.18932  543.   RY (20) N 29
  544.  0.00000     4.42215  544.   RY (21) N 29
  545.  0.00000     4.07525  545.   RY (22) N 29
  546.  0.00000     4.21343  546.   RY (23) N 29
  547.  0.00000     3.94721  547.   RY (24) N 29
  548.  0.00000     3.82118  548.   RY (25) N 29
  549.  0.00000     6.93914  549.   RY (26) N 29

 Maximum scratch memory used by NBO was 2678058 words
 Maximum scratch memory used by G09NBO was 1965706 words

 Read Unf file /scratch/aloke/Gau-19805.EUF:
 Label Gaussian matrix elements                                         IVers= 1 NLab= 2 Version=AM64L-G09RevD.01
 Title Energy Optimisation and Frequency calculation                   
 NAtoms=    29 NBasis=   549 NBsUse=   549 ICharg=     0 Multip=     1 NE=   108 Len12L=8 Len4L=8
 Label GAUSSIAN SCALARS                                                 NI= 1 NR= 1 NTot=       1 LenBuf=    2000 N=    1000       1       1       1       1
 Label ALPHA ORBITAL ENERGIES                                           NI= 0 NR= 1 NTot=     549 LenBuf=    4000 N=     549       0       0       0       0
 Label ALPHA MO COEFFICIENTS                                            NI= 0 NR= 1 NTot=  301401 LenBuf=    4000 N=     549     549       0       0       0
 Store file  524 Len=  301401.
 Label NPA CHARGES                                                      NI= 0 NR= 1 NTot=      29 LenBuf=    4000 N=      29       0       0       0       0
 Recovered energy= -650.668752850     dipole=      0.000000000000      0.000000000000      0.000000000000
 1\1\GINC-CN087\SP\RB3LYP\def2TZVP\C12H14N2O1\ALOKE\28-Oct-2021\0\\# b3
 lyp/def2tzvp empiricaldispersion=gd3 pop=nbo6read pop=saveNBOs int=(gr
 id=ultrafine) scf=(tight,maxcycle=300)\\Energy Optimisation and Freque
 ncy calculation\\0,1\C,0,-0.272962,-0.821932,0.304875\C,0,-0.910699,-2
 .060703,0.317395\C,0,-2.265994,-2.192382,0.034593\C,0,-3.009414,-1.062
 015,-0.270256\C,0,-2.398584,0.186978,-0.26892\C,0,-1.04017,0.326109,0.
 022048\H,0,-0.323987,-2.945817,0.535701\H,0,-4.064546,-1.144532,-0.499
 486\H,0,-2.990802,1.064137,-0.491922\N,0,-0.399435,1.602365,0.022284\C
 ,0,-0.926453,2.589607,-0.905328\H,0,-1.887352,3.02655,-0.589788\H,0,-0
 .209428,3.408569,-0.993134\H,0,-1.059416,2.141428,-1.889741\C,0,-0.201
 949,2.170034,1.354044\H,0,-1.142254,2.554549,1.780012\H,0,0.513379,2.9
 93405,1.300902\H,0,0.19006,1.419413,2.036621\C,0,1.221347,-0.750358,0.
 506006\H,0,1.579847,-1.694457,0.919233\H,0,1.501052,0.014928,1.22844\C
 ,0,1.960363,-0.464736,-0.802652\H,0,1.604113,0.474533,-1.24176\H,0,1.7
 5514,-1.235828,-1.55532\C,0,3.451068,-0.351845,-0.65799\H,0,3.998546,-
 0.187956,-1.612433\O,0,4.052859,-0.418488,0.383696\C,0,-2.92681548,-3.
 58332651,0.04831702\N,0,-3.41882712,-4.61894792,0.05853518\\Version=AM
 64L-G09RevD.01\State=1-A\HF=-650.6687529\RMSD=4.150e-09\Dipole=0.12877
 66,2.2068106,-0.6760182\Quadrupole=-6.1107102,-2.566898,8.6776082,-12.
 5800431,-4.0880021,-0.1297342\PG=C01 [X(C12H14N2O1)]\\@


 Time has a wonderful way of weeding out the trivial.
                                -- Richard Ben Sapir
 Job cpu time:       0 days  0 hours 58 minutes 31.8 seconds.
 File lengths (MBytes):  RWF=    118 Int=      0 D2E=      0 Chk=     12 Scr=      1
 Normal termination of Gaussian 09 at Thu Oct 28 14:37:31 2021.
