 Entering Gaussian System, Link 0=g09
 Initial command:
 /home/apps/iiser/g09/g09/l1.exe "/scratch/aloke/Gau-13219.inp" -scrdir="/scratch/aloke/"
 Entering Link 1 = /home/apps/iiser/g09/g09/l1.exe PID=     13220.
  
 Copyright (c) 1988,1990,1992,1993,1995,1998,2003,2009,2013,
            Gaussian, Inc.  All Rights Reserved.
  
 This is part of the Gaussian(R) 09 program.  It is based on
 the Gaussian(R) 03 system (copyright 2003, Gaussian, Inc.),
 the Gaussian(R) 98 system (copyright 1998, Gaussian, Inc.),
 the Gaussian(R) 94 system (copyright 1995, Gaussian, Inc.),
 the Gaussian 92(TM) system (copyright 1992, Gaussian, Inc.),
 the Gaussian 90(TM) system (copyright 1990, Gaussian, Inc.),
 the Gaussian 88(TM) system (copyright 1988, Gaussian, Inc.),
 the Gaussian 86(TM) system (copyright 1986, Carnegie Mellon
 University), and the Gaussian 82(TM) system (copyright 1983,
 Carnegie Mellon University). Gaussian is a federally registered
 trademark of Gaussian, Inc.
  
 This software contains proprietary and confidential information,
 including trade secrets, belonging to Gaussian, Inc.
  
 This software is provided under written license and may be
 used, copied, transmitted, or stored only in accord with that
 written license.
  
 The following legend is applicable only to US Government
 contracts under FAR:
  
                    RESTRICTED RIGHTS LEGEND
  
 Use, reproduction and disclosure by the US Government is
 subject to restrictions as set forth in subparagraphs (a)
 and (c) of the Commercial Computer Software - Restricted
 Rights clause in FAR 52.227-19.
  
 Gaussian, Inc.
 340 Quinnipiac St., Bldg. 40, Wallingford CT 06492
  
  
 ---------------------------------------------------------------
 Warning -- This program may not be used in any manner that
 competes with the business of Gaussian, Inc. or will provide
 assistance to any competitor of Gaussian, Inc.  The licensee
 of this program is prohibited from giving any competitor of
 Gaussian, Inc. access to this program.  By using this program,
 the user acknowledges that Gaussian, Inc. is engaged in the
 business of creating and licensing software in the field of
 computational chemistry and represents and warrants to the
 licensee that it is not a competitor of Gaussian, Inc. and that
 it will not use this program in any manner prohibited above.
 ---------------------------------------------------------------
  

 Cite this work as:
 Gaussian 09, Revision D.01,
 M. J. Frisch, G. W. Trucks, H. B. Schlegel, G. E. Scuseria, 
 M. A. Robb, J. R. Cheeseman, G. Scalmani, V. Barone, B. Mennucci, 
 G. A. Petersson, H. Nakatsuji, M. Caricato, X. Li, H. P. Hratchian, 
 A. F. Izmaylov, J. Bloino, G. Zheng, J. L. Sonnenberg, M. Hada, 
 M. Ehara, K. Toyota, R. Fukuda, J. Hasegawa, M. Ishida, T. Nakajima, 
 Y. Honda, O. Kitao, H. Nakai, T. Vreven, J. A. Montgomery, Jr., 
 J. E. Peralta, F. Ogliaro, M. Bearpark, J. J. Heyd, E. Brothers, 
 K. N. Kudin, V. N. Staroverov, T. Keith, R. Kobayashi, J. Normand, 
 K. Raghavachari, A. Rendell, J. C. Burant, S. S. Iyengar, J. Tomasi, 
 M. Cossi, N. Rega, J. M. Millam, M. Klene, J. E. Knox, J. B. Cross, 
 V. Bakken, C. Adamo, J. Jaramillo, R. Gomperts, R. E. Stratmann, 
 O. Yazyev, A. J. Austin, R. Cammi, C. Pomelli, J. W. Ochterski, 
 R. L. Martin, K. Morokuma, V. G. Zakrzewski, G. A. Voth, 
 P. Salvador, J. J. Dannenberg, S. Dapprich, A. D. Daniels, 
 O. Farkas, J. B. Foresman, J. V. Ortiz, J. Cioslowski, 
 and D. J. Fox, Gaussian, Inc., Wallingford CT, 2013.
 
 ******************************************
 Gaussian 09:  AM64L-G09RevD.01 24-Apr-2013
                28-Oct-2021 
 ******************************************
 %LindaWorkers=cn099
 %chk=cyano_mod_bp31_n.chk
 %mem=128GB
 %nprocshared=48
 Will use up to   48 processors via shared memory.
 SetLPE:  input flags=" -opt "Tsnet.Node.lindarsharg: ssh" "
 SetLPE:    new flags=" -opt "Tsnet.Node.lindarsharg: ssh"  -nodelist 'cn099'"
 Will use up to    1 processors via Linda.
 ----------------------------------------------------------------------
 # b3lyp/def2tzvp empiricaldispersion=gd3 pop=nbo6read pop=saveNBOs int
 =(grid=ultrafine) scf=(tight,maxcycle=300)
 ----------------------------------------------------------------------
 1/38=1,163=2/1;
 2/12=2,17=6,18=5,40=1/2;
 3/5=44,7=101,11=2,16=1,25=1,30=1,74=-5,75=-5,124=31/1,2,3;
 4//1;
 5/5=2,7=300,32=2,38=5/2;
 6/7=2,8=2,9=2,10=2,28=1,40=2,73=1,113=1,114=1,124=2103/1,12;
 99/5=1,9=1/99;
 ---------------------------------------------
 Energy Optimisation and Frequency calculation
 ---------------------------------------------
 Symbolic Z-matrix:
 Charge =  0 Multiplicity = 1
 C                    -0.28954   0.36054   0.58603 
 C                    -0.8302    1.64249   0.66326 
 C                    -0.14987   2.75116   0.17335 
 C                     1.09713   2.58462  -0.41186 
 C                     1.65994   1.31602  -0.48703 
 C                     0.98468   0.19946   0.00932 
 H                    -1.82231   1.76147   1.07921 
 H                     1.63676   3.4371   -0.80551 
 H                     2.63826   1.19617  -0.93291 
 N                     1.54977  -1.11327  -0.06356 
 C                     2.37234  -1.39329  -1.22898 
 H                     3.36677  -0.92001  -1.19584 
 H                     2.52718  -2.47207  -1.30147 
 H                     1.86317  -1.05686  -2.13185 
 C                     2.20381  -1.54003   1.16994 
 H                     3.16484  -1.02491   1.32852 
 H                     2.39328  -2.61522   1.13407 
 H                     1.57025  -1.33081   2.02995 
 C                    -1.10286  -0.82901   1.04493 
 H                    -1.9217   -0.48085   1.67566 
 H                    -0.49942  -1.50552   1.64844 
 C                    -1.68488  -1.6262   -0.12739 
 H                    -2.04574  -2.60946   0.20488 
 H                    -0.9128   -1.84234  -0.87191 
 C                    -2.85268  -0.9724   -0.81582 
 H                    -3.18333  -1.48033  -1.74831 
 O                    -3.43383   0.00533  -0.41974 
 C                    -0.79059   4.14875   0.26179 
 N                    -1.26764   5.18932   0.32764 
 
                          Input orientation:                          
 ---------------------------------------------------------------------
 Center     Atomic      Atomic             Coordinates (Angstroms)
 Number     Number       Type             X           Y           Z
 ---------------------------------------------------------------------
      1          6           0       -0.289544    0.360543    0.586034
      2          6           0       -0.830196    1.642491    0.663257
      3          6           0       -0.149866    2.751163    0.173349
      4          6           0        1.097133    2.584624   -0.411864
      5          6           0        1.659944    1.316018   -0.487033
      6          6           0        0.984682    0.199464    0.009320
      7          1           0       -1.822309    1.761465    1.079212
      8          1           0        1.636756    3.437103   -0.805514
      9          1           0        2.638256    1.196171   -0.932914
     10          7           0        1.549767   -1.113269   -0.063563
     11          6           0        2.372340   -1.393291   -1.228983
     12          1           0        3.366770   -0.920007   -1.195844
     13          1           0        2.527175   -2.472070   -1.301474
     14          1           0        1.863168   -1.056855   -2.131852
     15          6           0        2.203805   -1.540027    1.169941
     16          1           0        3.164839   -1.024912    1.328521
     17          1           0        2.393278   -2.615222    1.134067
     18          1           0        1.570254   -1.330814    2.029954
     19          6           0       -1.102859   -0.829008    1.044926
     20          1           0       -1.921702   -0.480847    1.675658
     21          1           0       -0.499423   -1.505516    1.648437
     22          6           0       -1.684876   -1.626195   -0.127394
     23          1           0       -2.045742   -2.609458    0.204884
     24          1           0       -0.912796   -1.842342   -0.871905
     25          6           0       -2.852676   -0.972397   -0.815823
     26          1           0       -3.183330   -1.480334   -1.748314
     27          8           0       -3.433829    0.005331   -0.419735
     28          6           0       -0.790592    4.148750    0.261793
     29          7           0       -1.267641    5.189316    0.327643
 ---------------------------------------------------------------------
                    Distance matrix (angstroms):
                    1          2          3          4          5
     1  C    0.000000
     2  C    1.393434   0.000000
     3  C    2.429996   1.389968   0.000000
     4  C    2.804498   2.399603   1.387522   0.000000
     5  C    2.421757   2.762345   2.402323   1.389880   0.000000
     6  C    1.407905   2.409096   2.797369   2.424671   1.396079
     7  H    2.134286   1.082341   2.144098   3.379947   3.844169
     8  H    3.887449   3.385819   2.149582   1.082993   2.144987
     9  H    3.402571   3.844102   3.378675   2.138774   1.081789
    10  N    2.444824   3.713045   4.228323   3.741738   2.468380
    11  C    3.668221   4.801331   5.050204   4.256483   2.897991
    12  H    4.264215   5.257107   5.264875   4.248331   2.900944
    13  H    4.418177   5.662307   6.051761   5.329782   3.970518
    14  H    3.745676   4.727929   4.885413   4.099456   2.894349
    15  C    3.189029   4.426094   4.994725   4.554072   3.346392
    16  H    3.795199   4.849528   5.155622   4.509224   3.322785
    17  H    4.043891   5.361023   6.015700   5.577481   4.315135
    18  H    2.899042   4.058394   4.802950   4.638639   3.653627
    19  C    1.512314   2.515616   3.805978   4.314520   3.818523
    20  H    2.135218   2.593242   3.980229   4.782073   4.553476
    21  H    2.157528   3.315108   4.518561   4.850059   4.145377
    22  C    2.530427   3.469858   4.648437   5.054849   4.469203
    23  H    3.471370   4.445979   5.686088   6.102174   5.442446
    24  H    2.714172   3.808885   4.772306   4.883593   4.091742
    25  C    3.211165   3.621566   4.706224   5.330720   5.070373
    26  H    4.148735   4.594012   5.549798   6.052466   5.733037
    27  O    3.320282   3.260685   4.321545   5.213677   5.260129
    28  C    3.834930   2.538518   1.540000   2.542402   3.819716
    29  N    4.933608   3.589424   2.686600   3.594920   4.923098
                    6          7          8          9         10
     6  C    0.000000
     7  H    3.385811   0.000000
     8  H    3.401685   4.280781   0.000000
     9  H    2.148380   4.925936   2.457846   0.000000
    10  N    1.431049   4.576126   4.611284   2.697053   0.000000
    11  C    2.448644   5.733701   4.904398   2.619863   1.453700
    12  H    2.894819   6.268390   4.704223   2.253458   2.149630
    13  H    3.351799   6.519854   5.996428   3.688383   2.081848
    14  H    2.633380   5.642393   4.691065   2.667272   2.092659
    15  C    2.420564   5.207463   5.384774   3.478150   1.459938
    16  H    2.827096   5.718190   5.176748   3.213190   2.134048
    17  H    3.342403   6.076971   6.400386   4.342711   2.098021
    18  H    2.601462   4.687812   5.547732   4.037929   2.104889
    19  C    2.547167   2.688742   5.397159   4.691390   2.888940
    20  H    3.418563   2.322410   5.845440   5.514549   3.933948
    21  H    2.792173   3.570323   5.917315   4.879295   2.698885
    22  C    3.237014   3.598753   6.093445   5.225331   3.275681
    23  H    4.136636   4.463109   7.151405   6.141436   3.903630
    24  H    2.923346   4.197797   5.863204   4.673998   2.692430
    25  C    4.096271   3.482358   6.292757   5.904806   4.468472
    26  H    4.825280   4.511822   6.950057   6.459057   5.037393
    27  O    4.443536   2.815643   6.134877   6.208999   5.119995
    28  C    4.337303   2.726122   2.745469   4.679962   5.768186
    29  N    5.483878   3.552841   3.576286   5.726277   6.914724
                   11         12         13         14         15
    11  C    0.000000
    12  H    1.101811   0.000000
    13  H    1.092242   1.767760   0.000000
    14  H    1.089779   1.776417   1.770104   0.000000
    15  C    2.409309   2.708108   2.661046   3.354300   0.000000
    16  H    2.702699   2.534601   3.068836   3.697235   1.101852
    17  H    2.660368   3.041369   2.443416   3.657287   1.092351
    18  H    3.356772   3.715105   3.649188   4.181086   1.088476
    19  C    4.191191   5.000691   4.624110   4.352143   3.384554
    20  H    5.263866   6.033765   5.711461   5.399459   4.289221
    21  H    4.066837   4.835308   4.335493   4.480370   2.745467
    22  C    4.210552   5.211469   4.453689   4.114683   4.100286
    23  H    4.801509   5.840511   4.816592   4.811495   4.487056
    24  H    3.334857   4.389798   3.523420   3.148084   3.738145
    25  C    5.258198   6.231265   5.606039   4.896759   5.462002
    26  H    5.580569   6.597196   5.813181   5.078738   6.127071
    27  O    6.026825   6.907007   6.515255   5.667253   6.057897
    28  C    6.552920   6.715702   7.568793   6.314293   6.492559
    29  N    7.681358   7.818095   8.703533   7.407141   7.618692
                   16         17         18         19         20
    16  H    0.000000
    17  H    1.778259   0.000000
    18  H    1.768696   1.769092   0.000000
    19  C    4.281594   3.927019   2.892684   0.000000
    20  H    5.127320   4.844371   3.611333   1.090662   0.000000
    21  H    3.709467   3.140660   2.111786   1.089047   1.753159
    22  C    5.099114   4.381872   3.916283   1.532509   2.149164
    23  H    5.560890   4.535230   4.247498   2.182820   2.590279
    24  H    4.705016   3.943525   3.853308   2.176513   3.059679
    25  C    6.388384   5.832750   5.271548   2.558282   2.704776
    26  H    7.069199   6.379236   6.074062   3.543272   3.783420
    27  O    6.903638   6.575468   5.729494   2.876591   2.629367
    28  C    6.599251   7.526566   6.222990   5.048651   4.971075
    29  N    7.698394   8.658145   7.311882   6.063157   5.864784
                   21         22         23         24         25
    21  H    0.000000
    22  C    2.138560   0.000000
    23  H    2.386134   1.098835   0.000000
    24  H    2.576131   1.094131   1.741123   0.000000
    25  C    3.448854   1.505039   2.091161   2.126754   0.000000
    26  H    4.329193   2.212244   2.526660   2.460583   1.112147
    27  O    3.894962   2.409601   3.025567   3.158158   1.204399
    28  C    5.829089   5.856722   6.874010   6.098638   5.624908
    29  N    6.866981   6.843416   7.838456   7.142062   6.464252
                   26         27         28         29
    26  H    0.000000
    27  O    2.008749   0.000000
    28  C    6.438346   4.961764   0.000000
    29  N    7.243183   5.667861   1.146600   0.000000
 Stoichiometry    C12H14N2O
 Framework group  C1[X(C12H14N2O)]
 Deg. of freedom    81
 Full point group                 C1      NOp   1
 Largest Abelian subgroup         C1      NOp   1
 Largest concise Abelian subgroup C1      NOp   1
                         Standard orientation:                         
 ---------------------------------------------------------------------
 Center     Atomic      Atomic             Coordinates (Angstroms)
 Number     Number       Type             X           Y           Z
 ---------------------------------------------------------------------
      1          6           0       -0.076173    0.215965    0.557490
      2          6           0        1.316824    0.237217    0.585162
      3          6           0        2.072250   -0.803914    0.058483
      4          6           0        1.430544   -1.892780   -0.514055
      5          6           0        0.041696   -1.939591   -0.540051
      6          6           0       -0.722700   -0.900271   -0.006618
      7          1           0        1.813059    1.109027    0.991560
      8          1           0        2.004627   -2.708478   -0.935885
      9          1           0       -0.451255   -2.798005   -0.976391
     10          7           0       -2.153211   -0.932708   -0.028707
     11          6           0       -2.762044   -1.580272   -1.179023
     12          1           0       -2.694251   -2.679799   -1.158247
     13          1           0       -3.822270   -1.319750   -1.211302
     14          1           0       -2.292052   -1.225723   -2.096094
     15          6           0       -2.749285   -1.390818    1.222793
     16          1           0       -2.625752   -2.476154    1.367230
     17          1           0       -3.817838   -1.164090    1.227147
     18          1           0       -2.287689   -0.889303    2.071433
     19          6           0       -0.857913    1.410953    1.055467
     20          1           0       -0.206430    2.034415    1.668988
     21          1           0       -1.689009    1.098880    1.686270
     22          6           0       -1.420839    2.259466   -0.089839
     23          1           0       -2.185180    2.958855    0.276326
     24          1           0       -1.936554    1.631029   -0.822114
     25          6           0       -0.402709    3.104185   -0.807478
     26          1           0       -0.783043    3.609238   -1.722430
     27          8           0        0.734905    3.273887   -0.450250
     28          6           0        3.610247   -0.733204    0.092647
     29          7           0        4.755355   -0.680557    0.118084
 ---------------------------------------------------------------------
 Rotational constants (GHZ):      0.6984503      0.4856881      0.3236047
 Standard basis: def2TZVP (5D, 7F)
 There are   624 symmetry adapted cartesian basis functions of A   symmetry.
 There are   549 symmetry adapted basis functions of A   symmetry.
   549 basis functions,   877 primitive gaussians,   624 cartesian basis functions
    54 alpha electrons       54 beta electrons
       nuclear repulsion energy       942.6514009954 Hartrees.
 NAtoms=   29 NActive=   29 NUniq=   29 SFac= 1.00D+00 NAtFMM=   60 NAOKFM=F Big=F
 Integral buffers will be    131072 words long.
 Raffenetti 2 integral format.
 Two-electron integral symmetry is turned on.
 Nuclear repulsion after empirical dispersion term =      942.6229383909 Hartrees.
 One-electron integrals computed using PRISM.
   1 Symmetry operations used in ECPInt.
 ECPInt:  NShTT=   24531 NPrTT=   74292 LenC2=   22817 LenP2D=   51318.
 LDataN:  DoStor=T MaxTD1= 6 Len=  172
 NBasis=   549 RedAO= T EigKep=  5.07D-06  NBF=   549
 NBsUse=   549 1.00D-06 EigRej= -1.00D+00 NBFU=   549
 ExpMin= 9.52D-02 ExpMax= 2.70D+04 ExpMxC= 9.22D+02 IAcc=3 IRadAn=         5 AccDes= 0.00D+00
 Harris functional with IExCor=  402 and IRadAn=       5 diagonalized for initial guess.
 HarFok:  IExCor=  402 AccDes= 0.00D+00 IRadAn=         5 IDoV= 1 UseB2=F ITyADJ=14
 ICtDFT=  3500011 ScaDFX=  1.000000  1.000000  1.000000  1.000000
 FoFCou: FMM=F IPFlag=           0 FMFlag=      100000 FMFlg1=           0
         NFxFlg=           0 DoJE=T BraDBF=F KetDBF=T FulRan=T
         wScrn=  0.000000 ICntrl=     500 IOpCl=  0 I1Cent=   200000004 NGrid=           0
         NMat0=    1 NMatS0=      1 NMatT0=    0 NMatD0=    1 NMtDS0=    0 NMtDT0=    0
 Petite list used in FoFCou.
 Keep R1 ints in memory in canonical form, NReq=11520166478.
 Requested convergence on RMS density matrix=1.00D-08 within 300 cycles.
 Requested convergence on MAX density matrix=1.00D-06.
 Requested convergence on             energy=1.00D-06.
 No special actions if energy rises.
 Integral accuracy reduced to 1.0D-05 until final iterations.
 Initial convergence to 1.0D-05 achieved.  Increase integral accuracy.
 SCF Done:  E(RB3LYP) =  -650.668022153     A.U. after   15 cycles
            NFock= 15  Conv=0.64D-08     -V/T= 2.0053

 **********************************************************************

            Population analysis using the SCF density.

 **********************************************************************

 Orbital symmetries:
       Occupied  (A) (A) (A) (A) (A) (A) (A) (A) (A) (A) (A) (A)
                 (A) (A) (A) (A) (A) (A) (A) (A) (A) (A) (A) (A)
                 (A) (A) (A) (A) (A) (A) (A) (A) (A) (A) (A) (A)
                 (A) (A) (A) (A) (A) (A) (A) (A) (A) (A) (A) (A)
                 (A) (A) (A) (A) (A) (A)
       Virtual   (A) (A) (A) (A) (A) (A) (A) (A) (A) (A) (A) (A)
                 (A) (A) (A) (A) (A) (A) (A) (A) (A) (A) (A) (A)
                 (A) (A) (A) (A) (A) (A) (A) (A) (A) (A) (A) (A)
                 (A) (A) (A) (A) (A) (A) (A) (A) (A) (A) (A) (A)
                 (A) (A) (A) (A) (A) (A) (A) (A) (A) (A) (A) (A)
                 (A) (A) (A) (A) (A) (A) (A) (A) (A) (A) (A) (A)
                 (A) (A) (A) (A) (A) (A) (A) (A) (A) (A) (A) (A)
                 (A) (A) (A) (A) (A) (A) (A) (A) (A) (A) (A) (A)
                 (A) (A) (A) (A) (A) (A) (A) (A) (A) (A) (A) (A)
                 (A) (A) (A) (A) (A) (A) (A) (A) (A) (A) (A) (A)
                 (A) (A) (A) (A) (A) (A) (A) (A) (A) (A) (A) (A)
                 (A) (A) (A) (A) (A) (A) (A) (A) (A) (A) (A) (A)
                 (A) (A) (A) (A) (A) (A) (A) (A) (A) (A) (A) (A)
                 (A) (A) (A) (A) (A) (A) (A) (A) (A) (A) (A) (A)
                 (A) (A) (A) (A) (A) (A) (A) (A) (A) (A) (A) (A)
                 (A) (A) (A) (A) (A) (A) (A) (A) (A) (A) (A) (A)
                 (A) (A) (A) (A) (A) (A) (A) (A) (A) (A) (A) (A)
                 (A) (A) (A) (A) (A) (A) (A) (A) (A) (A) (A) (A)
                 (A) (A) (A) (A) (A) (A) (A) (A) (A) (A) (A) (A)
                 (A) (A) (A) (A) (A) (A) (A) (A) (A) (A) (A) (A)
                 (A) (A) (A) (A) (A) (A) (A) (A) (A) (A) (A) (A)
                 (A) (A) (A) (A) (A) (A) (A) (A) (A) (A) (A) (A)
                 (A) (A) (A) (A) (A) (A) (A) (A) (A) (A) (A) (A)
                 (A) (A) (A) (A) (A) (A) (A) (A) (A) (A) (A) (A)
                 (A) (A) (A) (A) (A) (A) (A) (A) (A) (A) (A) (A)
                 (A) (A) (A) (A) (A) (A) (A) (A) (A) (A) (A) (A)
                 (A) (A) (A) (A) (A) (A) (A) (A) (A) (A) (A) (A)
                 (A) (A) (A) (A) (A) (A) (A) (A) (A) (A) (A) (A)
                 (A) (A) (A) (A) (A) (A) (A) (A) (A) (A) (A) (A)
                 (A) (A) (A) (A) (A) (A) (A) (A) (A) (A) (A) (A)
                 (A) (A) (A) (A) (A) (A) (A) (A) (A) (A) (A) (A)
                 (A) (A) (A) (A) (A) (A) (A) (A) (A) (A) (A) (A)
                 (A) (A) (A) (A) (A) (A) (A) (A) (A) (A) (A) (A)
                 (A) (A) (A) (A) (A) (A) (A) (A) (A) (A) (A) (A)
                 (A) (A) (A) (A) (A) (A) (A) (A) (A) (A) (A) (A)
                 (A) (A) (A) (A) (A) (A) (A) (A) (A) (A) (A) (A)
                 (A) (A) (A) (A) (A) (A) (A) (A) (A) (A) (A) (A)
                 (A) (A) (A) (A) (A) (A) (A) (A) (A) (A) (A) (A)
                 (A) (A) (A) (A) (A) (A) (A) (A) (A) (A) (A) (A)
                 (A) (A) (A) (A) (A) (A) (A) (A) (A) (A) (A) (A)
                 (A) (A) (A) (A) (A) (A) (A) (A) (A) (A) (A) (A)
                 (A) (A) (A)
 The electronic state is 1-A.
 Alpha  occ. eigenvalues --  -19.13655 -14.33999 -14.30963 -10.27148 -10.23048
 Alpha  occ. eigenvalues --  -10.22978 -10.21218 -10.21120 -10.21111 -10.20242
 Alpha  occ. eigenvalues --  -10.20151 -10.19684 -10.19677 -10.19479 -10.19246
 Alpha  occ. eigenvalues --   -1.06338  -0.95939  -0.90812  -0.87819  -0.82072
 Alpha  occ. eigenvalues --   -0.77527  -0.76643  -0.73173  -0.69324  -0.67522
 Alpha  occ. eigenvalues --   -0.62306  -0.60897  -0.57566  -0.54448  -0.52132
 Alpha  occ. eigenvalues --   -0.51723  -0.49378  -0.48676  -0.47777  -0.46014
 Alpha  occ. eigenvalues --   -0.45626  -0.44967  -0.43464  -0.41915  -0.41690
 Alpha  occ. eigenvalues --   -0.41328  -0.39935  -0.39336  -0.39006  -0.38111
 Alpha  occ. eigenvalues --   -0.37315  -0.36256  -0.35722  -0.34741  -0.33878
 Alpha  occ. eigenvalues --   -0.28338  -0.27983  -0.26564  -0.23664
 Alpha virt. eigenvalues --   -0.04932  -0.04060  -0.03301   0.01292   0.03496
 Alpha virt. eigenvalues --    0.03652   0.04354   0.04730   0.05752   0.06648
 Alpha virt. eigenvalues --    0.06980   0.07294   0.08118   0.08722   0.09494
 Alpha virt. eigenvalues --    0.09968   0.10430   0.11547   0.11885   0.12593
 Alpha virt. eigenvalues --    0.12976   0.13507   0.14373   0.15238   0.16715
 Alpha virt. eigenvalues --    0.16933   0.17638   0.18517   0.19188   0.20309
 Alpha virt. eigenvalues --    0.20866   0.21547   0.22402   0.22766   0.23290
 Alpha virt. eigenvalues --    0.24076   0.24516   0.25712   0.26025   0.26749
 Alpha virt. eigenvalues --    0.27592   0.28216   0.28888   0.29563   0.30052
 Alpha virt. eigenvalues --    0.30490   0.31478   0.31813   0.32776   0.33554
 Alpha virt. eigenvalues --    0.34262   0.35148   0.36350   0.36659   0.36792
 Alpha virt. eigenvalues --    0.37956   0.38368   0.38985   0.39487   0.39839
 Alpha virt. eigenvalues --    0.40296   0.40368   0.40555   0.41100   0.41926
 Alpha virt. eigenvalues --    0.42948   0.43143   0.43542   0.43973   0.44114
 Alpha virt. eigenvalues --    0.45162   0.45681   0.46659   0.47241   0.47611
 Alpha virt. eigenvalues --    0.47959   0.48386   0.49137   0.49677   0.50206
 Alpha virt. eigenvalues --    0.51270   0.51989   0.53245   0.54042   0.54943
 Alpha virt. eigenvalues --    0.56005   0.56677   0.57573   0.58118   0.58806
 Alpha virt. eigenvalues --    0.60038   0.61162   0.61604   0.63248   0.63853
 Alpha virt. eigenvalues --    0.64570   0.65370   0.66203   0.66996   0.67844
 Alpha virt. eigenvalues --    0.69149   0.69831   0.70929   0.71500   0.72071
 Alpha virt. eigenvalues --    0.73716   0.74771   0.75429   0.76388   0.76757
 Alpha virt. eigenvalues --    0.78702   0.79773   0.80337   0.81883   0.82852
 Alpha virt. eigenvalues --    0.83300   0.85029   0.86310   0.87010   0.87089
 Alpha virt. eigenvalues --    0.88201   0.90234   0.90605   0.91420   0.92297
 Alpha virt. eigenvalues --    0.93483   0.95371   0.95776   0.97538   0.98581
 Alpha virt. eigenvalues --    1.00058   1.01140   1.03077   1.04376   1.05040
 Alpha virt. eigenvalues --    1.05622   1.06475   1.07201   1.07961   1.08462
 Alpha virt. eigenvalues --    1.08915   1.10683   1.11847   1.13443   1.14091
 Alpha virt. eigenvalues --    1.16926   1.17935   1.18820   1.19371   1.21105
 Alpha virt. eigenvalues --    1.21917   1.22652   1.23696   1.25020   1.26736
 Alpha virt. eigenvalues --    1.27441   1.28178   1.30925   1.31596   1.33499
 Alpha virt. eigenvalues --    1.33943   1.35091   1.36106   1.37140   1.38481
 Alpha virt. eigenvalues --    1.40140   1.40301   1.40822   1.42673   1.44175
 Alpha virt. eigenvalues --    1.44796   1.46087   1.46787   1.48462   1.49914
 Alpha virt. eigenvalues --    1.50314   1.50885   1.51461   1.51829   1.52707
 Alpha virt. eigenvalues --    1.53575   1.54509   1.55240   1.55875   1.56461
 Alpha virt. eigenvalues --    1.56863   1.57680   1.59269   1.59302   1.60807
 Alpha virt. eigenvalues --    1.60903   1.62447   1.63023   1.64406   1.66470
 Alpha virt. eigenvalues --    1.66666   1.67384   1.68607   1.70407   1.71321
 Alpha virt. eigenvalues --    1.73108   1.74740   1.75539   1.79622   1.80212
 Alpha virt. eigenvalues --    1.82229   1.82672   1.83811   1.85317   1.85701
 Alpha virt. eigenvalues --    1.87391   1.88300   1.89067   1.91330   1.91701
 Alpha virt. eigenvalues --    1.92286   1.93161   1.95391   1.96736   1.96909
 Alpha virt. eigenvalues --    1.97923   2.00600   2.00954   2.03656   2.05398
 Alpha virt. eigenvalues --    2.06295   2.07875   2.08663   2.09982   2.12554
 Alpha virt. eigenvalues --    2.13805   2.14134   2.15013   2.15963   2.16317
 Alpha virt. eigenvalues --    2.17489   2.18537   2.19962   2.22640   2.23313
 Alpha virt. eigenvalues --    2.24489   2.25902   2.26769   2.28283   2.29119
 Alpha virt. eigenvalues --    2.30937   2.31487   2.32823   2.34131   2.35169
 Alpha virt. eigenvalues --    2.36744   2.39225   2.39942   2.41592   2.42348
 Alpha virt. eigenvalues --    2.43365   2.43786   2.45941   2.46589   2.48875
 Alpha virt. eigenvalues --    2.49611   2.50727   2.51519   2.52445   2.52595
 Alpha virt. eigenvalues --    2.53124   2.54905   2.56195   2.57425   2.58297
 Alpha virt. eigenvalues --    2.59351   2.59800   2.60444   2.63644   2.63854
 Alpha virt. eigenvalues --    2.63984   2.64886   2.66099   2.66722   2.67309
 Alpha virt. eigenvalues --    2.69091   2.69714   2.71221   2.72121   2.72841
 Alpha virt. eigenvalues --    2.74220   2.74773   2.76063   2.76793   2.78066
 Alpha virt. eigenvalues --    2.79132   2.80401   2.81082   2.83556   2.84442
 Alpha virt. eigenvalues --    2.85025   2.85222   2.87134   2.87421   2.88103
 Alpha virt. eigenvalues --    2.89696   2.90525   2.92144   2.93762   2.95128
 Alpha virt. eigenvalues --    2.97209   2.97849   2.98246   2.99733   3.00828
 Alpha virt. eigenvalues --    3.01761   3.02905   3.03973   3.04662   3.04829
 Alpha virt. eigenvalues --    3.05372   3.06015   3.07173   3.08492   3.09315
 Alpha virt. eigenvalues --    3.10659   3.10957   3.11780   3.12202   3.14143
 Alpha virt. eigenvalues --    3.14463   3.15535   3.15639   3.16656   3.17184
 Alpha virt. eigenvalues --    3.18237   3.19859   3.20403   3.21415   3.23171
 Alpha virt. eigenvalues --    3.24219   3.25539   3.26219   3.26894   3.27391
 Alpha virt. eigenvalues --    3.28938   3.29404   3.30384   3.31515   3.31958
 Alpha virt. eigenvalues --    3.32845   3.34526   3.35188   3.35970   3.36788
 Alpha virt. eigenvalues --    3.37196   3.37964   3.38930   3.40443   3.41176
 Alpha virt. eigenvalues --    3.43557   3.44117   3.45665   3.47653   3.47953
 Alpha virt. eigenvalues --    3.48540   3.49261   3.50049   3.50341   3.51916
 Alpha virt. eigenvalues --    3.52126   3.53048   3.56238   3.57797   3.58939
 Alpha virt. eigenvalues --    3.59392   3.60279   3.61985   3.63673   3.66109
 Alpha virt. eigenvalues --    3.66999   3.70165   3.71165   3.72498   3.74620
 Alpha virt. eigenvalues --    3.75922   3.76898   3.78097   3.79143   3.80776
 Alpha virt. eigenvalues --    3.83938   3.85046   3.86690   3.86753   3.87460
 Alpha virt. eigenvalues --    3.92085   3.95572   3.97689   3.98039   3.98335
 Alpha virt. eigenvalues --    4.00254   4.01648   4.03938   4.05065   4.06983
 Alpha virt. eigenvalues --    4.08794   4.11698   4.12785   4.13679   4.15871
 Alpha virt. eigenvalues --    4.18260   4.18583   4.19956   4.20983   4.22514
 Alpha virt. eigenvalues --    4.24107   4.25543   4.27082   4.28799   4.30074
 Alpha virt. eigenvalues --    4.32084   4.33180   4.36511   4.38479   4.40030
 Alpha virt. eigenvalues --    4.40624   4.42104   4.45249   4.45447   4.50110
 Alpha virt. eigenvalues --    4.53225   4.54718   4.55588   4.57285   4.58248
 Alpha virt. eigenvalues --    4.60035   4.64370   4.67672   4.69490   4.70711
 Alpha virt. eigenvalues --    4.76199   4.76788   4.78937   4.80283   4.88940
 Alpha virt. eigenvalues --    4.90042   4.90777   4.94471   4.98290   5.00913
 Alpha virt. eigenvalues --    5.03180   5.12264   5.12589   5.15352   5.16899
 Alpha virt. eigenvalues --    5.18573   5.23372   5.23455   5.28685   5.32918
 Alpha virt. eigenvalues --    5.34927   5.38185   5.38657   5.46702   5.47616
 Alpha virt. eigenvalues --    5.52305   5.54809   5.56095   5.64301   5.65363
 Alpha virt. eigenvalues --    5.69960   5.75013   5.77488   5.83670   5.93375
 Alpha virt. eigenvalues --    6.01218   6.10289   6.15933   6.30897   6.35353
 Alpha virt. eigenvalues --    6.40747   6.47028   6.79679   6.92510   7.04378
 Alpha virt. eigenvalues --   22.16444  22.38753  22.42322  22.49434  22.57657
 Alpha virt. eigenvalues --   22.70263  22.72317  22.81617  22.85583  22.95542
 Alpha virt. eigenvalues --   23.33151  23.51312  32.09190  32.72106  43.77685
          Condensed to atoms (all electrons):
               1          2          3          4          5          6
     1  C    5.444254   0.155174   0.159190  -0.170828   0.144625   0.218310
     2  C    0.155174   5.500674   0.229890   0.124199  -0.240644   0.120634
     3  C    0.159190   0.229890   5.130084   0.333645   0.121291  -0.174050
     4  C   -0.170828   0.124199   0.333645   5.182560   0.262639   0.103039
     5  C    0.144625  -0.240644   0.121291   0.262639   5.300927   0.273936
     6  C    0.218310   0.120634  -0.174050   0.103039   0.273936   5.263974
     7  H   -0.075791   0.458639  -0.061997   0.016453  -0.008294   0.023115
     8  H   -0.002367   0.012466  -0.046706   0.432699  -0.055009   0.012225
     9  H    0.010870  -0.004247   0.013879  -0.053516   0.453825  -0.073487
    10  N   -0.092991   0.005993  -0.001103   0.010858  -0.075508   0.306716
    11  C    0.009988  -0.001226   0.000703  -0.001864   0.005030  -0.083501
    12  H   -0.000566  -0.000389   0.000069  -0.002807   0.000752  -0.011880
    13  H   -0.000368   0.000115  -0.000003   0.000194   0.001183   0.008551
    14  H    0.002539   0.000586  -0.000411   0.001533  -0.011615   0.004613
    15  C    0.022181   0.004581  -0.000696   0.000866  -0.019248  -0.068314
    16  H    0.001217  -0.001294   0.000072  -0.002329   0.005050  -0.005487
    17  H   -0.001445   0.000099  -0.000029   0.000198  -0.000097   0.012522
    18  H    0.005036   0.002834  -0.000241   0.000564  -0.000013  -0.010255
    19  C    0.313452  -0.089814   0.017872  -0.007028   0.026615  -0.092223
    20  H   -0.067274   0.010601   0.000457   0.000569  -0.001186   0.005990
    21  H   -0.017669   0.010680  -0.002051   0.000840  -0.002307  -0.015518
    22  C    0.020964  -0.058436   0.012555  -0.005155   0.009098   0.001066
    23  H    0.010304   0.000387  -0.000149   0.000048  -0.000205  -0.001226
    24  H    0.002202   0.007542  -0.000603   0.000409  -0.003014  -0.013405
    25  C   -0.013215   0.008484  -0.002530   0.001052  -0.001624  -0.003019
    26  H   -0.002614   0.003667  -0.000616   0.000254  -0.000441  -0.000807
    27  O   -0.024422   0.019165  -0.005045   0.001071  -0.000821  -0.001031
    28  C    0.007426  -0.063842   0.091088  -0.062906   0.005593  -0.003093
    29  N   -0.000344   0.002501  -0.049195   0.001962  -0.000276  -0.000027
               7          8          9         10         11         12
     1  C   -0.075791  -0.002367   0.010870  -0.092991   0.009988  -0.000566
     2  C    0.458639   0.012466  -0.004247   0.005993  -0.001226  -0.000389
     3  C   -0.061997  -0.046706   0.013879  -0.001103   0.000703   0.000069
     4  C    0.016453   0.432699  -0.053516   0.010858  -0.001864  -0.002807
     5  C   -0.008294  -0.055009   0.453825  -0.075508   0.005030   0.000752
     6  C    0.023115   0.012225  -0.073487   0.306716  -0.083501  -0.011880
     7  H    0.517784  -0.000173  -0.000002  -0.000213   0.000014  -0.000004
     8  H   -0.000173   0.532669  -0.007039  -0.000294  -0.000023   0.000084
     9  H   -0.000002  -0.007039   0.549977  -0.006190   0.003535   0.006062
    10  N   -0.000213  -0.000294  -0.006190   6.683091   0.282793  -0.042809
    11  C    0.000014  -0.000023   0.003535   0.282793   4.923602   0.405103
    12  H   -0.000004   0.000084   0.006062  -0.042809   0.405103   0.626460
    13  H    0.000001  -0.000004  -0.000189  -0.044650   0.406976  -0.043483
    14  H    0.000010  -0.000006  -0.002868  -0.042547   0.414745  -0.041252
    15  C    0.000076   0.000034  -0.000579   0.274356  -0.066156  -0.015784
    16  H   -0.000018   0.000040   0.001318  -0.043341  -0.012826   0.020428
    17  H    0.000003  -0.000002  -0.000138  -0.046861  -0.005347  -0.003668
    18  H    0.000064  -0.000005  -0.000065  -0.037535   0.011160  -0.001227
    19  C   -0.017012   0.000168  -0.000113   0.026360  -0.002545   0.000783
    20  H    0.004287   0.000001   0.000012   0.000413  -0.000079   0.000006
    21  H    0.000991  -0.000001  -0.000029  -0.002371   0.000276  -0.000065
    22  C   -0.007932  -0.000045   0.000055  -0.008412   0.002433  -0.000199
    23  H    0.000068   0.000000  -0.000002  -0.000137  -0.000094  -0.000001
    24  H    0.000188   0.000007   0.000022   0.019533  -0.002224   0.000636
    25  C    0.000583   0.000010  -0.000004   0.002966  -0.000185   0.000033
    26  H    0.000685   0.000001  -0.000002   0.000025  -0.000024   0.000000
    27  O    0.016638   0.000003  -0.000001  -0.000022  -0.000006   0.000000
    28  C   -0.003396  -0.007772  -0.000090  -0.000040  -0.000021  -0.000013
    29  N    0.001018   0.000953   0.000003  -0.000001   0.000000   0.000000
              13         14         15         16         17         18
     1  C   -0.000368   0.002539   0.022181   0.001217  -0.001445   0.005036
     2  C    0.000115   0.000586   0.004581  -0.001294   0.000099   0.002834
     3  C   -0.000003  -0.000411  -0.000696   0.000072  -0.000029  -0.000241
     4  C    0.000194   0.001533   0.000866  -0.002329   0.000198   0.000564
     5  C    0.001183  -0.011615  -0.019248   0.005050  -0.000097  -0.000013
     6  C    0.008551   0.004613  -0.068314  -0.005487   0.012522  -0.010255
     7  H    0.000001   0.000010   0.000076  -0.000018   0.000003   0.000064
     8  H   -0.000004  -0.000006   0.000034   0.000040  -0.000002  -0.000005
     9  H   -0.000189  -0.002868  -0.000579   0.001318  -0.000138  -0.000065
    10  N   -0.044650  -0.042547   0.274356  -0.043341  -0.046861  -0.037535
    11  C    0.406976   0.414745  -0.066156  -0.012826  -0.005347   0.011160
    12  H   -0.043483  -0.041252  -0.015784   0.020428  -0.003668  -0.001227
    13  H    0.562231  -0.014818  -0.002369  -0.003712   0.004783   0.000577
    14  H   -0.014818   0.545615   0.011895  -0.001271   0.000518  -0.000255
    15  C   -0.002369   0.011895   4.922212   0.396131   0.407603   0.415757
    16  H   -0.003712  -0.001271   0.396131   0.614467  -0.041704  -0.036478
    17  H    0.004783   0.000518   0.407603  -0.041704   0.573135  -0.018500
    18  H    0.000577  -0.000255   0.415757  -0.036478  -0.018500   0.549835
    19  C   -0.000592  -0.001069  -0.019708   0.003374  -0.000246  -0.013926
    20  H   -0.000002   0.000002   0.000292   0.000014  -0.000029  -0.000123
    21  H    0.000095   0.000052   0.000985  -0.000163  -0.000534   0.004824
    22  C    0.000444   0.000751  -0.000470  -0.000034   0.000022   0.000749
    23  H    0.000007   0.000017   0.000217  -0.000004  -0.000038  -0.000059
    24  H   -0.000950  -0.000962   0.000114   0.000229  -0.000316  -0.000329
    25  C   -0.000042  -0.000091  -0.000130   0.000023  -0.000019  -0.000104
    26  H    0.000004   0.000021   0.000007   0.000000   0.000002  -0.000001
    27  O    0.000000   0.000002   0.000008   0.000000   0.000000  -0.000002
    28  C    0.000001   0.000008  -0.000015  -0.000017   0.000001   0.000016
    29  N    0.000000   0.000000   0.000000   0.000000   0.000000   0.000000
              19         20         21         22         23         24
     1  C    0.313452  -0.067274  -0.017669   0.020964   0.010304   0.002202
     2  C   -0.089814   0.010601   0.010680  -0.058436   0.000387   0.007542
     3  C    0.017872   0.000457  -0.002051   0.012555  -0.000149  -0.000603
     4  C   -0.007028   0.000569   0.000840  -0.005155   0.000048   0.000409
     5  C    0.026615  -0.001186  -0.002307   0.009098  -0.000205  -0.003014
     6  C   -0.092223   0.005990  -0.015518   0.001066  -0.001226  -0.013405
     7  H   -0.017012   0.004287   0.000991  -0.007932   0.000068   0.000188
     8  H    0.000168   0.000001  -0.000001  -0.000045   0.000000   0.000007
     9  H   -0.000113   0.000012  -0.000029   0.000055  -0.000002   0.000022
    10  N    0.026360   0.000413  -0.002371  -0.008412  -0.000137   0.019533
    11  C   -0.002545  -0.000079   0.000276   0.002433  -0.000094  -0.002224
    12  H    0.000783   0.000006  -0.000065  -0.000199  -0.000001   0.000636
    13  H   -0.000592  -0.000002   0.000095   0.000444   0.000007  -0.000950
    14  H   -0.001069   0.000002   0.000052   0.000751   0.000017  -0.000962
    15  C   -0.019708   0.000292   0.000985  -0.000470   0.000217   0.000114
    16  H    0.003374   0.000014  -0.000163  -0.000034  -0.000004   0.000229
    17  H   -0.000246  -0.000029  -0.000534   0.000022  -0.000038  -0.000316
    18  H   -0.013926  -0.000123   0.004824   0.000749  -0.000059  -0.000329
    19  C    4.985612   0.434141   0.394674   0.173285  -0.024324  -0.043509
    20  H    0.434141   0.552478  -0.031377  -0.034058  -0.001348   0.005859
    21  H    0.394674  -0.031377   0.614825  -0.047207  -0.004775  -0.001158
    22  C    0.173285  -0.034058  -0.047207   5.644195   0.353567   0.360319
    23  H   -0.024324  -0.001348  -0.004775   0.353567   0.580804  -0.021681
    24  H   -0.043509   0.005859  -0.001158   0.360319  -0.021681   0.556530
    25  C   -0.002476  -0.004905   0.006470   0.137203  -0.015272  -0.005937
    26  H    0.019804   0.000698  -0.000004  -0.211301   0.006016   0.008322
    27  O    0.029333   0.005856   0.001145  -0.163112   0.003215   0.004541
    28  C   -0.002170  -0.000044   0.000004   0.000631  -0.000006  -0.000019
    29  N   -0.000028   0.000002   0.000000   0.000001   0.000000   0.000000
              25         26         27         28         29
     1  C   -0.013215  -0.002614  -0.024422   0.007426  -0.000344
     2  C    0.008484   0.003667   0.019165  -0.063842   0.002501
     3  C   -0.002530  -0.000616  -0.005045   0.091088  -0.049195
     4  C    0.001052   0.000254   0.001071  -0.062906   0.001962
     5  C   -0.001624  -0.000441  -0.000821   0.005593  -0.000276
     6  C   -0.003019  -0.000807  -0.001031  -0.003093  -0.000027
     7  H    0.000583   0.000685   0.016638  -0.003396   0.001018
     8  H    0.000010   0.000001   0.000003  -0.007772   0.000953
     9  H   -0.000004  -0.000002  -0.000001  -0.000090   0.000003
    10  N    0.002966   0.000025  -0.000022  -0.000040  -0.000001
    11  C   -0.000185  -0.000024  -0.000006  -0.000021   0.000000
    12  H    0.000033   0.000000   0.000000  -0.000013   0.000000
    13  H   -0.000042   0.000004   0.000000   0.000001   0.000000
    14  H   -0.000091   0.000021   0.000002   0.000008   0.000000
    15  C   -0.000130   0.000007   0.000008  -0.000015   0.000000
    16  H    0.000023   0.000000   0.000000  -0.000017   0.000000
    17  H   -0.000019   0.000002   0.000000   0.000001   0.000000
    18  H   -0.000104  -0.000001  -0.000002   0.000016   0.000000
    19  C   -0.002476   0.019804   0.029333  -0.002170  -0.000028
    20  H   -0.004905   0.000698   0.005856  -0.000044   0.000002
    21  H    0.006470  -0.000004   0.001145   0.000004   0.000000
    22  C    0.137203  -0.211301  -0.163112   0.000631   0.000001
    23  H   -0.015272   0.006016   0.003215  -0.000006   0.000000
    24  H   -0.005937   0.008322   0.004541  -0.000019   0.000000
    25  C    4.697834   0.454746   0.641980  -0.000140  -0.000001
    26  H    0.454746   0.698361  -0.052352  -0.000026   0.000000
    27  O    0.641980  -0.052352   7.797446  -0.000615  -0.000005
    28  C   -0.000140  -0.000026  -0.000615   5.312407   0.992071
    29  N   -0.000001   0.000000  -0.000005   0.992071   6.016198
 Mulliken charges:
               1
     1  C   -0.057840
     2  C   -0.219020
     3  C    0.234631
     4  C   -0.169217
     5  C   -0.190260
     6  C    0.202630
     7  H    0.134215
     8  H    0.128084
     9  H    0.109003
    10  N   -0.168081
    11  C   -0.290235
    12  H    0.103731
    13  H    0.126019
    14  H    0.134258
    15  C   -0.263848
    16  H    0.106313
    17  H    0.120086
    18  H    0.127701
    19  C   -0.108690
    20  H    0.118747
    21  H    0.089367
    22  C   -0.180978
    23  H    0.114669
    24  H    0.127654
    25  C    0.098309
    26  H    0.075577
    27  O   -0.272972
    28  C   -0.265021
    29  N    0.035166
 Sum of Mulliken charges =   0.00000
 Mulliken charges with hydrogens summed into heavy atoms:
               1
     1  C   -0.057840
     2  C   -0.084805
     3  C    0.234631
     4  C   -0.041133
     5  C   -0.081257
     6  C    0.202630
    10  N   -0.168081
    11  C    0.073773
    15  C    0.090253
    19  C    0.099424
    22  C    0.061345
    25  C    0.173886
    27  O   -0.272972
    28  C   -0.265021
    29  N    0.035166
 Electronic spatial extent (au):  <R**2>=           3479.3037
 Charge=              0.0000 electrons
 Dipole moment (field-independent basis, Debye):
    X=             -8.1446    Y=             -1.1827    Z=             -0.3123  Tot=              8.2359
 Quadrupole moment (field-independent basis, Debye-Ang):
   XX=           -112.7271   YY=            -87.5763   ZZ=            -86.8078
   XY=             -2.4638   XZ=             -0.0165   YZ=              2.6197
 Traceless Quadrupole moment (field-independent basis, Debye-Ang):
   XX=            -17.0234   YY=              8.1275   ZZ=              8.8959
   XY=             -2.4638   XZ=             -0.0165   YZ=              2.6197
 Octapole moment (field-independent basis, Debye-Ang**2):
  XXX=           -186.0789  YYY=             -8.3722  ZZZ=             -2.8116  XYY=            -29.7124
  XXY=             14.3387  XXZ=             -3.0914  XZZ=             -9.3906  YZZ=              8.2894
  YYZ=             -8.4155  XYZ=              7.0862
 Hexadecapole moment (field-independent basis, Debye-Ang**3):
 XXXX=          -3444.1420 YYYY=          -1742.3071 ZZZZ=           -406.5090 XXXY=            131.4259
 XXXZ=            -26.7172 YYYX=            -79.7125 YYYZ=             13.6780 ZZZX=             -0.9082
 ZZZY=             -7.7723 XXYY=           -725.9762 XXZZ=           -499.4002 YYZZ=           -340.7873
 XXYZ=             14.3465 YYXZ=              6.4529 ZZXY=              5.9936
 N-N= 9.426229383909D+02 E-N=-3.397980059253D+03  KE= 6.472291951111D+02
 Running external command "gaunbo6 R"
         input file       "/scratch/aloke/Gau-13220.EIn"
         output file      "/scratch/aloke/Gau-13220.EOu"
         message file     "/scratch/aloke/Gau-13220.EMs"
         fchk file        "/scratch/aloke/Gau-13220.EFC"
         mat. el file     "/scratch/aloke/Gau-13220.EUF"

 Writing Wrt12E file "/scratch/aloke/Gau-13220.EUF"
 Gaussian matrix elements                                         Version   1 NLab= 7 Len12L=8 Len4L=8
 Write GAUSSIAN SCALARS               from file   501 offset           0 to matrix element file.
 Write OVERLAP                        from file   514 offset           0 to matrix element file.
 Write CORE HAMILTONIAN ALPHA         from file   515 offset           0 to matrix element file.
 Write CORE HAMILTONIAN BETA          from file   515 offset      150975 to matrix element file.
 Write KINETIC ENERGY                 from file   516 offset           0 to matrix element file.
 Write ORTHOGONAL BASIS               from file   685 offset           0 to matrix element file.
 Write DIPOLE INTEGRALS               from file   518 offset           0 to matrix element file.
 Array DIP VEL INTEGRALS               on  file    572 does not exist.
 Array R X DEL INTEGRALS               on  file    572 does not exist.
 Write ALPHA ORBITAL ENERGIES         from file     0 offset           0 to matrix element file.
 Write ALPHA MO COEFFICIENTS          from file 10524 offset           0 to matrix element file.
 Write ALPHA DENSITY MATRIX           from file     0 offset           0 to matrix element file.
 Write ALPHA SCF DENSITY MATRIX       from file 10528 offset           0 to matrix element file.
 Write ALPHA FOCK MATRIX              from file 10536 offset           0 to matrix element file.
 No 2e integrals to process.
 Perform NBO analysis...

 *********************************** NBO 6.0 ***********************************
             N A T U R A L   A T O M I C   O R B I T A L   A N D
          N A T U R A L   B O N D   O R B I T A L   A N A L Y S I S
 ************************* Aloke Das Software (101058) *************************
  (c) Copyright 1996-2016 Board of Regents of the University of Wisconsin System
      on behalf of the Theoretical Chemistry Institute.  All rights reserved.

          Cite this program as:

          NBO 6.0.  E. D. Glendening, J. K. Badenhoop, A. E. Reed,
          J. E. Carpenter, J. A. Bohmann, C. M. Morales, C. R. Landis,
          and F. Weinhold (Theoretical Chemistry Institute, University
          of Wisconsin, Madison, WI, 2013); http://nbo6.chem.wisc.edu/

       /E2PERT / : Analyze NBO Fock matrix
                   Print threshold set to 0.1
       /AONBO  / : Checkpoint the AO to NBO transformation
                   NBOs sorted by occupancy

 Filename set to /scratch/aloke/Gau-13220

 Job title:  Energy Optimisation and Frequency calculation


 NATURAL POPULATIONS:  Natural atomic orbital occupancies

  NAO Atom No lang   Type(AO)    Occupancy      Energy
 -------------------------------------------------------
   1    C  1  s      Cor( 1s)     1.99999     -10.20225
   2    C  1  s      Val( 2s)     0.92357      -0.12016
   3    C  1  s      Ryd( 3s)     0.00078       1.24613
   4    C  1  s      Ryd( 4s)     0.00015       2.16869
   5    C  1  s      Ryd( 5s)     0.00000      19.20879
   6    C  1  px     Val( 2p)     1.05179      -0.02960
   7    C  1  px     Ryd( 3p)     0.00383       0.99599
   8    C  1  px     Ryd( 4p)     0.00044       2.19176
   9    C  1  py     Val( 2p)     1.02426      -0.04625
  10    C  1  py     Ryd( 3p)     0.00479       1.02274
  11    C  1  py     Ryd( 4p)     0.00030       2.03435
  12    C  1  pz     Val( 2p)     1.00689      -0.10277
  13    C  1  pz     Ryd( 3p)     0.00210       0.79871
  14    C  1  pz     Ryd( 4p)     0.00014       1.61102
  15    C  1  dxy    Ryd( 3d)     0.00078       2.64986
  16    C  1  dxy    Ryd( 4d)     0.00064       3.90586
  17    C  1  dxz    Ryd( 3d)     0.00041       2.00191
  18    C  1  dxz    Ryd( 4d)     0.00028       3.40421
  19    C  1  dyz    Ryd( 3d)     0.00068       2.77910
  20    C  1  dyz    Ryd( 4d)     0.00019       3.54746
  21    C  1  dx2y2  Ryd( 3d)     0.00086       2.76467
  22    C  1  dx2y2  Ryd( 4d)     0.00049       3.91395
  23    C  1  dz2    Ryd( 3d)     0.00064       2.81944
  24    C  1  dz2    Ryd( 4d)     0.00009       3.41793
  25    C  1  f(0)   Ryd( 4f)     0.00037       3.36234
  26    C  1  f(c1)  Ryd( 4f)     0.00024       3.40069
  27    C  1  f(s1)  Ryd( 4f)     0.00033       3.30847
  28    C  1  f(c2)  Ryd( 4f)     0.00017       3.46408
  29    C  1  f(s2)  Ryd( 4f)     0.00029       3.49411
  30    C  1  f(c3)  Ryd( 4f)     0.00057       3.81178
  31    C  1  f(s3)  Ryd( 4f)     0.00011       3.71119

  32    C  2  s      Cor( 1s)     1.99999     -10.19674
  33    C  2  s      Val( 2s)     0.96701      -0.13004
  34    C  2  s      Ryd( 3s)     0.00070       1.71597
  35    C  2  s      Ryd( 4s)     0.00009       2.03222
  36    C  2  s      Ryd( 5s)     0.00000      20.86452
  37    C  2  px     Val( 2p)     1.06771      -0.03507
  38    C  2  px     Ryd( 3p)     0.00254       0.97772
  39    C  2  px     Ryd( 4p)     0.00011       1.95743
  40    C  2  py     Val( 2p)     1.10744      -0.06617
  41    C  2  py     Ryd( 3p)     0.00355       1.09056
  42    C  2  py     Ryd( 4p)     0.00017       2.01978
  43    C  2  pz     Val( 2p)     0.99468      -0.11048
  44    C  2  pz     Ryd( 3p)     0.00185       0.77323
  45    C  2  pz     Ryd( 4p)     0.00013       1.47846
  46    C  2  dxy    Ryd( 3d)     0.00095       2.18431
  47    C  2  dxy    Ryd( 4d)     0.00051       3.84901
  48    C  2  dxz    Ryd( 3d)     0.00049       1.83266
  49    C  2  dxz    Ryd( 4d)     0.00017       3.25073
  50    C  2  dyz    Ryd( 3d)     0.00104       2.02284
  51    C  2  dyz    Ryd( 4d)     0.00009       3.22035
  52    C  2  dx2y2  Ryd( 3d)     0.00127       2.10224
  53    C  2  dx2y2  Ryd( 4d)     0.00034       3.86617
  54    C  2  dz2    Ryd( 3d)     0.00085       1.94676
  55    C  2  dz2    Ryd( 4d)     0.00004       3.17016
  56    C  2  f(0)   Ryd( 4f)     0.00042       3.33051
  57    C  2  f(c1)  Ryd( 4f)     0.00024       3.38618
  58    C  2  f(s1)  Ryd( 4f)     0.00028       3.16665
  59    C  2  f(c2)  Ryd( 4f)     0.00021       3.41208
  60    C  2  f(s2)  Ryd( 4f)     0.00028       3.49557
  61    C  2  f(c3)  Ryd( 4f)     0.00052       3.79631
  62    C  2  f(s3)  Ryd( 4f)     0.00019       3.63016

  63    C  3  s      Cor( 1s)     1.99999     -10.23035
  64    C  3  s      Val( 2s)     0.92773      -0.13045
  65    C  3  s      Ryd( 3s)     0.00098       1.31541
  66    C  3  s      Ryd( 4s)     0.00023       2.44686
  67    C  3  s      Ryd( 5s)     0.00000      17.65606
  68    C  3  px     Val( 2p)     1.02064      -0.05464
  69    C  3  px     Ryd( 3p)     0.00681       1.13808
  70    C  3  px     Ryd( 4p)     0.00036       2.53974
  71    C  3  py     Val( 2p)     1.08852      -0.06702
  72    C  3  py     Ryd( 3p)     0.00207       0.93628
  73    C  3  py     Ryd( 4p)     0.00026       1.75387
  74    C  3  pz     Val( 2p)     1.07920      -0.11853
  75    C  3  pz     Ryd( 3p)     0.00157       0.74607
  76    C  3  pz     Ryd( 4p)     0.00014       1.47275
  77    C  3  dxy    Ryd( 3d)     0.00074       2.80575
  78    C  3  dxy    Ryd( 4d)     0.00031       3.78590
  79    C  3  dxz    Ryd( 3d)     0.00039       2.21301
  80    C  3  dxz    Ryd( 4d)     0.00013       3.19408
  81    C  3  dyz    Ryd( 3d)     0.00070       2.64130
  82    C  3  dyz    Ryd( 4d)     0.00008       3.39834
  83    C  3  dx2y2  Ryd( 3d)     0.00079       3.24926
  84    C  3  dx2y2  Ryd( 4d)     0.00050       3.87628
  85    C  3  dz2    Ryd( 3d)     0.00066       2.92424
  86    C  3  dz2    Ryd( 4d)     0.00007       3.18865
  87    C  3  f(0)   Ryd( 4f)     0.00029       3.40468
  88    C  3  f(c1)  Ryd( 4f)     0.00020       3.38026
  89    C  3  f(s1)  Ryd( 4f)     0.00036       3.33486
  90    C  3  f(c2)  Ryd( 4f)     0.00021       3.52316
  91    C  3  f(s2)  Ryd( 4f)     0.00032       3.51157
  92    C  3  f(c3)  Ryd( 4f)     0.00037       3.83731
  93    C  3  f(s3)  Ryd( 4f)     0.00009       3.74221

  94    C  4  s      Cor( 1s)     1.99999     -10.20139
  95    C  4  s      Val( 2s)     0.96885      -0.13861
  96    C  4  s      Ryd( 3s)     0.00068       1.66027
  97    C  4  s      Ryd( 4s)     0.00002       2.63088
  98    C  4  s      Ryd( 5s)     0.00000      20.11235
  99    C  4  px     Val( 2p)     1.07812      -0.04308
 100    C  4  px     Ryd( 3p)     0.00305       1.01870
 101    C  4  px     Ryd( 4p)     0.00011       1.84278
 102    C  4  py     Val( 2p)     1.09816      -0.07134
 103    C  4  py     Ryd( 3p)     0.00350       1.00286
 104    C  4  py     Ryd( 4p)     0.00016       1.94674
 105    C  4  pz     Val( 2p)     1.00645      -0.11305
 106    C  4  pz     Ryd( 3p)     0.00186       0.77034
 107    C  4  pz     Ryd( 4p)     0.00016       1.43756
 108    C  4  dxy    Ryd( 3d)     0.00076       2.14283
 109    C  4  dxy    Ryd( 4d)     0.00051       3.71167
 110    C  4  dxz    Ryd( 3d)     0.00043       1.92102
 111    C  4  dxz    Ryd( 4d)     0.00019       3.08516
 112    C  4  dyz    Ryd( 3d)     0.00099       2.11904
 113    C  4  dyz    Ryd( 4d)     0.00008       3.11670
 114    C  4  dx2y2  Ryd( 3d)     0.00109       2.22071
 115    C  4  dx2y2  Ryd( 4d)     0.00023       3.68732
 116    C  4  dz2    Ryd( 3d)     0.00075       2.01274
 117    C  4  dz2    Ryd( 4d)     0.00004       3.00383
 118    C  4  f(0)   Ryd( 4f)     0.00038       3.34612
 119    C  4  f(c1)  Ryd( 4f)     0.00023       3.36119
 120    C  4  f(s1)  Ryd( 4f)     0.00030       3.18056
 121    C  4  f(c2)  Ryd( 4f)     0.00020       3.40750
 122    C  4  f(s2)  Ryd( 4f)     0.00032       3.51050
 123    C  4  f(c3)  Ryd( 4f)     0.00046       3.76047
 124    C  4  f(s3)  Ryd( 4f)     0.00016       3.60194

 125    C  5  s      Cor( 1s)     1.99999     -10.19469
 126    C  5  s      Val( 2s)     0.97426      -0.14185
 127    C  5  s      Ryd( 3s)     0.00094       1.61502
 128    C  5  s      Ryd( 4s)     0.00007       1.56476
 129    C  5  s      Ryd( 5s)     0.00000      20.78496
 130    C  5  px     Val( 2p)     1.07754      -0.04264
 131    C  5  px     Ryd( 3p)     0.00281       0.98432
 132    C  5  px     Ryd( 4p)     0.00022       1.96218
 133    C  5  py     Val( 2p)     1.11025      -0.07096
 134    C  5  py     Ryd( 3p)     0.00299       1.01274
 135    C  5  py     Ryd( 4p)     0.00030       1.76537
 136    C  5  pz     Val( 2p)     1.05920      -0.11648
 137    C  5  pz     Ryd( 3p)     0.00204       0.75991
 138    C  5  pz     Ryd( 4p)     0.00016       1.41087
 139    C  5  dxy    Ryd( 3d)     0.00100       2.14078
 140    C  5  dxy    Ryd( 4d)     0.00047       3.76342
 141    C  5  dxz    Ryd( 3d)     0.00042       1.85553
 142    C  5  dxz    Ryd( 4d)     0.00021       3.21191
 143    C  5  dyz    Ryd( 3d)     0.00091       2.08085
 144    C  5  dyz    Ryd( 4d)     0.00008       3.17174
 145    C  5  dx2y2  Ryd( 3d)     0.00119       2.25321
 146    C  5  dx2y2  Ryd( 4d)     0.00022       3.78122
 147    C  5  dz2    Ryd( 3d)     0.00084       1.97495
 148    C  5  dz2    Ryd( 4d)     0.00003       3.12077
 149    C  5  f(0)   Ryd( 4f)     0.00040       3.34228
 150    C  5  f(c1)  Ryd( 4f)     0.00025       3.37701
 151    C  5  f(s1)  Ryd( 4f)     0.00031       3.16158
 152    C  5  f(c2)  Ryd( 4f)     0.00020       3.40783
 153    C  5  f(s2)  Ryd( 4f)     0.00029       3.50791
 154    C  5  f(c3)  Ryd( 4f)     0.00051       3.78728
 155    C  5  f(s3)  Ryd( 4f)     0.00016       3.60284

 156    C  6  s      Cor( 1s)     1.99999     -10.22965
 157    C  6  s      Val( 2s)     0.88098      -0.11139
 158    C  6  s      Ryd( 3s)     0.00099       1.41095
 159    C  6  s      Ryd( 4s)     0.00016       1.72195
 160    C  6  s      Ryd( 5s)     0.00000      20.84559
 161    C  6  px     Val( 2p)     0.89158      -0.01318
 162    C  6  px     Ryd( 3p)     0.00544       1.10825
 163    C  6  px     Ryd( 4p)     0.00040       1.91351
 164    C  6  py     Val( 2p)     1.04191      -0.05004
 165    C  6  py     Ryd( 3p)     0.00239       0.90178
 166    C  6  py     Ryd( 4p)     0.00046       1.95635
 167    C  6  pz     Val( 2p)     1.00019      -0.10828
 168    C  6  pz     Ryd( 3p)     0.00285       0.77517
 169    C  6  pz     Ryd( 4p)     0.00016       1.61340
 170    C  6  dxy    Ryd( 3d)     0.00128       3.04900
 171    C  6  dxy    Ryd( 4d)     0.00048       3.48801
 172    C  6  dxz    Ryd( 3d)     0.00051       2.64401
 173    C  6  dxz    Ryd( 4d)     0.00031       2.94064
 174    C  6  dyz    Ryd( 3d)     0.00062       2.98915
 175    C  6  dyz    Ryd( 4d)     0.00021       3.07440
 176    C  6  dx2y2  Ryd( 4d)     0.00045       3.93878
 177    C  6  dx2y2  Ryd( 3d)     0.00095       3.58476
 178    C  6  dz2    Ryd( 3d)     0.00045       3.33660
 179    C  6  dz2    Ryd( 4d)     0.00015       2.85281
 180    C  6  f(0)   Ryd( 4f)     0.00028       3.42963
 181    C  6  f(c1)  Ryd( 4f)     0.00017       3.41864
 182    C  6  f(s1)  Ryd( 4f)     0.00031       3.33653
 183    C  6  f(c2)  Ryd( 4f)     0.00019       3.56190
 184    C  6  f(s2)  Ryd( 4f)     0.00032       3.52040
 185    C  6  f(c3)  Ryd( 4f)     0.00046       3.78981
 186    C  6  f(s3)  Ryd( 4f)     0.00009       3.75964

 187    H  7  s      Val( 1s)     0.76319       0.05050
 188    H  7  s      Ryd( 2s)     0.00053       0.94928
 189    H  7  s      Ryd( 3s)     0.00010       1.78474
 190    H  7  px     Ryd( 2p)     0.00018       2.66703
 191    H  7  py     Ryd( 2p)     0.00055       2.69725
 192    H  7  pz     Ryd( 2p)     0.00019       2.27812

 193    H  8  s      Val( 1s)     0.77439       0.03548
 194    H  8  s      Ryd( 2s)     0.00034       0.73628
 195    H  8  s      Ryd( 3s)     0.00010       1.92618
 196    H  8  px     Ryd( 2p)     0.00024       2.62550
 197    H  8  py     Ryd( 2p)     0.00044       2.64045
 198    H  8  pz     Ryd( 2p)     0.00021       2.27477

 199    H  9  s      Val( 1s)     0.78183       0.03234
 200    H  9  s      Ryd( 2s)     0.00107       0.71692
 201    H  9  s      Ryd( 3s)     0.00009       1.91366
 202    H  9  px     Ryd( 2p)     0.00019       2.63632
 203    H  9  py     Ryd( 2p)     0.00050       2.69435
 204    H  9  pz     Ryd( 2p)     0.00024       2.28958

 205    N 10  s      Cor( 1s)     1.99999     -14.33980
 206    N 10  s      Val( 2s)     1.25673      -0.42676
 207    N 10  s      Ryd( 3s)     0.00099       1.53441
 208    N 10  s      Ryd( 4s)     0.00008       5.57510
 209    N 10  s      Ryd( 5s)     0.00000      25.36257
 210    N 10  px     Val( 2p)     1.24592      -0.18650
 211    N 10  px     Ryd( 3p)     0.00256       0.72590
 212    N 10  px     Ryd( 4p)     0.00018       3.02089
 213    N 10  py     Val( 2p)     1.70729      -0.23759
 214    N 10  py     Ryd( 3p)     0.00826       0.82350
 215    N 10  py     Ryd( 4p)     0.00022       2.58410
 216    N 10  pz     Val( 2p)     1.20685      -0.19087
 217    N 10  pz     Ryd( 3p)     0.00245       0.81360
 218    N 10  pz     Ryd( 4p)     0.00012       2.87540
 219    N 10  dxy    Ryd( 3d)     0.00143       2.14685
 220    N 10  dxy    Ryd( 4d)     0.00018       4.92271
 221    N 10  dxz    Ryd( 3d)     0.00034       2.15492
 222    N 10  dxz    Ryd( 4d)     0.00021       5.01039
 223    N 10  dyz    Ryd( 3d)     0.00229       1.91477
 224    N 10  dyz    Ryd( 4d)     0.00011       4.99058
 225    N 10  dx2y2  Ryd( 3d)     0.00229       2.53764
 226    N 10  dx2y2  Ryd( 4d)     0.00006       5.35900
 227    N 10  dz2    Ryd( 3d)     0.00136       2.08375
 228    N 10  dz2    Ryd( 4d)     0.00015       5.14684
 229    N 10  f(0)   Ryd( 4f)     0.00003       4.78254
 230    N 10  f(c1)  Ryd( 4f)     0.00016       4.93682
 231    N 10  f(s1)  Ryd( 4f)     0.00014       4.66367
 232    N 10  f(c2)  Ryd( 4f)     0.00005       4.78543
 233    N 10  f(s2)  Ryd( 4f)     0.00006       4.58098
 234    N 10  f(c3)  Ryd( 4f)     0.00017       4.58076
 235    N 10  f(s3)  Ryd( 4f)     0.00013       4.75958

 236    C 11  s      Cor( 1s)     1.99999     -10.21101
 237    C 11  s      Val( 2s)     1.08446      -0.22927
 238    C 11  s      Ryd( 3s)     0.00084       1.40743
 239    C 11  s      Ryd( 4s)     0.00003       1.69144
 240    C 11  s      Ryd( 5s)     0.00000      21.66882
 241    C 11  px     Val( 2p)     1.15492      -0.12002
 242    C 11  px     Ryd( 3p)     0.00168       0.75140
 243    C 11  px     Ryd( 4p)     0.00017       1.59393
 244    C 11  py     Val( 2p)     1.13625      -0.11218
 245    C 11  py     Ryd( 3p)     0.00114       0.64993
 246    C 11  py     Ryd( 4p)     0.00030       1.46691
 247    C 11  pz     Val( 2p)     1.01072      -0.10021
 248    C 11  pz     Ryd( 3p)     0.00160       0.63041
 249    C 11  pz     Ryd( 4p)     0.00010       1.55982
 250    C 11  dxy    Ryd( 3d)     0.00054       2.06109
 251    C 11  dxy    Ryd( 4d)     0.00004       2.60957
 252    C 11  dxz    Ryd( 3d)     0.00083       2.33071
 253    C 11  dxz    Ryd( 4d)     0.00006       2.73955
 254    C 11  dyz    Ryd( 3d)     0.00085       2.36689
 255    C 11  dyz    Ryd( 4d)     0.00007       2.66476
 256    C 11  dx2y2  Ryd( 3d)     0.00164       1.97241
 257    C 11  dx2y2  Ryd( 4d)     0.00011       3.03185
 258    C 11  dz2    Ryd( 3d)     0.00107       2.20502
 259    C 11  dz2    Ryd( 4d)     0.00008       2.98289
 260    C 11  f(0)   Ryd( 4f)     0.00003       3.40575
 261    C 11  f(c1)  Ryd( 4f)     0.00030       3.67683
 262    C 11  f(s1)  Ryd( 4f)     0.00023       3.63657
 263    C 11  f(c2)  Ryd( 4f)     0.00001       3.32584
 264    C 11  f(s2)  Ryd( 4f)     0.00003       3.43662
 265    C 11  f(c3)  Ryd( 4f)     0.00009       3.34218
 266    C 11  f(s3)  Ryd( 4f)     0.00023       3.56707

 267    H 12  s      Val( 1s)     0.83326      -0.00304
 268    H 12  s      Ryd( 2s)     0.00293       0.53635
 269    H 12  s      Ryd( 3s)     0.00004       2.08797
 270    H 12  px     Ryd( 2p)     0.00009       2.11393
 271    H 12  py     Ryd( 2p)     0.00087       2.75045
 272    H 12  pz     Ryd( 2p)     0.00009       2.14144

 273    H 13  s      Val( 1s)     0.79884       0.01202
 274    H 13  s      Ryd( 2s)     0.00064       0.71378
 275    H 13  s      Ryd( 3s)     0.00004       1.77528
 276    H 13  px     Ryd( 2p)     0.00080       2.74170
 277    H 13  py     Ryd( 2p)     0.00011       2.14952
 278    H 13  pz     Ryd( 2p)     0.00009       2.20049

 279    H 14  s      Val( 1s)     0.79425       0.01432
 280    H 14  s      Ryd( 2s)     0.00048       0.49698
 281    H 14  s      Ryd( 3s)     0.00005       2.04929
 282    H 14  px     Ryd( 2p)     0.00018       2.26856
 283    H 14  py     Ryd( 2p)     0.00013       2.19732
 284    H 14  pz     Ryd( 2p)     0.00055       2.73442

 285    C 15  s      Cor( 1s)     1.99999     -10.21207
 286    C 15  s      Val( 2s)     1.08826      -0.23121
 287    C 15  s      Ryd( 3s)     0.00092       1.33143
 288    C 15  s      Ryd( 4s)     0.00004       1.81727
 289    C 15  s      Ryd( 5s)     0.00000      21.64080
 290    C 15  px     Val( 2p)     1.15134      -0.12001
 291    C 15  px     Ryd( 3p)     0.00130       0.69927
 292    C 15  px     Ryd( 4p)     0.00013       1.52857
 293    C 15  py     Val( 2p)     1.16478      -0.11861
 294    C 15  py     Ryd( 3p)     0.00126       0.64138
 295    C 15  py     Ryd( 4p)     0.00031       1.48072
 296    C 15  pz     Val( 2p)     0.97607      -0.09517
 297    C 15  pz     Ryd( 3p)     0.00137       0.61710
 298    C 15  pz     Ryd( 4p)     0.00013       1.53613
 299    C 15  dxy    Ryd( 3d)     0.00058       1.98508
 300    C 15  dxy    Ryd( 4d)     0.00004       2.62651
 301    C 15  dxz    Ryd( 3d)     0.00070       2.36069
 302    C 15  dxz    Ryd( 4d)     0.00006       2.76974
 303    C 15  dyz    Ryd( 3d)     0.00112       2.16688
 304    C 15  dyz    Ryd( 4d)     0.00006       2.68289
 305    C 15  dx2y2  Ryd( 3d)     0.00167       1.97553
 306    C 15  dx2y2  Ryd( 4d)     0.00008       3.03678
 307    C 15  dz2    Ryd( 3d)     0.00088       2.35958
 308    C 15  dz2    Ryd( 4d)     0.00010       3.01623
 309    C 15  f(0)   Ryd( 4f)     0.00005       3.44744
 310    C 15  f(c1)  Ryd( 4f)     0.00029       3.66476
 311    C 15  f(s1)  Ryd( 4f)     0.00022       3.62655
 312    C 15  f(c2)  Ryd( 4f)     0.00003       3.32593
 313    C 15  f(s2)  Ryd( 4f)     0.00003       3.49066
 314    C 15  f(c3)  Ryd( 4f)     0.00012       3.36873
 315    C 15  f(s3)  Ryd( 4f)     0.00019       3.48383

 316    H 16  s      Val( 1s)     0.82712       0.00116
 317    H 16  s      Ryd( 2s)     0.00311       0.51570
 318    H 16  s      Ryd( 3s)     0.00003       2.04724
 319    H 16  px     Ryd( 2p)     0.00008       2.10753
 320    H 16  py     Ryd( 2p)     0.00081       2.72011
 321    H 16  pz     Ryd( 2p)     0.00011       2.18364

 322    H 17  s      Val( 1s)     0.80313       0.01003
 323    H 17  s      Ryd( 2s)     0.00068       0.63767
 324    H 17  s      Ryd( 3s)     0.00003       1.83044
 325    H 17  px     Ryd( 2p)     0.00087       2.74033
 326    H 17  py     Ryd( 2p)     0.00010       2.12860
 327    H 17  pz     Ryd( 2p)     0.00009       2.20044

 328    H 18  s      Val( 1s)     0.79747       0.01559
 329    H 18  s      Ryd( 2s)     0.00052       0.63870
 330    H 18  s      Ryd( 3s)     0.00004       1.96938
 331    H 18  px     Ryd( 2p)     0.00019       2.27627
 332    H 18  py     Ryd( 2p)     0.00021       2.27195
 333    H 18  pz     Ryd( 2p)     0.00052       2.69744

 334    C 19  s      Cor( 1s)     1.99999     -10.19231
 335    C 19  s      Val( 2s)     1.04287      -0.20225
 336    C 19  s      Ryd( 3s)     0.00096       1.70438
 337    C 19  s      Ryd( 4s)     0.00004       2.10355
 338    C 19  s      Ryd( 5s)     0.00000      20.97754
 339    C 19  px     Val( 2p)     1.16035      -0.10022
 340    C 19  px     Ryd( 3p)     0.00303       0.97486
 341    C 19  px     Ryd( 4p)     0.00021       1.74513
 342    C 19  py     Val( 2p)     1.07702      -0.08953
 343    C 19  py     Ryd( 3p)     0.00228       0.78076
 344    C 19  py     Ryd( 4p)     0.00017       1.69052
 345    C 19  pz     Val( 2p)     1.11348      -0.10008
 346    C 19  pz     Ryd( 3p)     0.00223       0.69282
 347    C 19  pz     Ryd( 4p)     0.00030       1.64461
 348    C 19  dxy    Ryd( 3d)     0.00132       2.28473
 349    C 19  dxy    Ryd( 4d)     0.00015       3.68413
 350    C 19  dxz    Ryd( 3d)     0.00116       1.87107
 351    C 19  dxz    Ryd( 4d)     0.00017       3.51283
 352    C 19  dyz    Ryd( 3d)     0.00118       2.12969
 353    C 19  dyz    Ryd( 4d)     0.00018       3.64305
 354    C 19  dx2y2  Ryd( 3d)     0.00040       1.96537
 355    C 19  dx2y2  Ryd( 4d)     0.00024       3.16183
 356    C 19  dz2    Ryd( 3d)     0.00038       1.83001
 357    C 19  dz2    Ryd( 4d)     0.00019       3.10510
 358    C 19  f(0)   Ryd( 4f)     0.00003       3.52004
 359    C 19  f(c1)  Ryd( 4f)     0.00005       3.42735
 360    C 19  f(s1)  Ryd( 4f)     0.00009       3.51294
 361    C 19  f(c2)  Ryd( 4f)     0.00013       3.59317
 362    C 19  f(s2)  Ryd( 4f)     0.00052       3.82638
 363    C 19  f(c3)  Ryd( 4f)     0.00012       3.44378
 364    C 19  f(s3)  Ryd( 4f)     0.00004       3.62333

 365    H 20  s      Val( 1s)     0.77349       0.03305
 366    H 20  s      Ryd( 2s)     0.00094       0.79442
 367    H 20  s      Ryd( 3s)     0.00004       1.86377
 368    H 20  px     Ryd( 2p)     0.00033       2.46448
 369    H 20  py     Ryd( 2p)     0.00035       2.58507
 370    H 20  pz     Ryd( 2p)     0.00032       2.58234

 371    H 21  s      Val( 1s)     0.78264       0.02587
 372    H 21  s      Ryd( 2s)     0.00077       0.73186
 373    H 21  s      Ryd( 3s)     0.00004       2.01551
 374    H 21  px     Ryd( 2p)     0.00057       2.60591
 375    H 21  py     Ryd( 2p)     0.00017       2.42519
 376    H 21  pz     Ryd( 2p)     0.00037       2.63549

 377    C 22  s      Cor( 1s)     1.99999     -10.19660
 378    C 22  s      Val( 2s)     1.08971      -0.23843
 379    C 22  s      Ryd( 3s)     0.00061       1.18489
 380    C 22  s      Ryd( 4s)     0.00003       2.82050
 381    C 22  s      Ryd( 5s)     0.00001      20.09234
 382    C 22  px     Val( 2p)     1.14419      -0.11831
 383    C 22  px     Ryd( 3p)     0.00173       0.62691
 384    C 22  px     Ryd( 4p)     0.00016       1.65240
 385    C 22  py     Val( 2p)     1.13231      -0.11578
 386    C 22  py     Ryd( 3p)     0.00146       0.72865
 387    C 22  py     Ryd( 4p)     0.00013       1.64707
 388    C 22  pz     Val( 2p)     1.11510      -0.10691
 389    C 22  pz     Ryd( 3p)     0.00103       0.70606
 390    C 22  pz     Ryd( 4p)     0.00019       1.63249
 391    C 22  dxy    Ryd( 3d)     0.00169       1.84776
 392    C 22  dxy    Ryd( 4d)     0.00008       3.67085
 393    C 22  dxz    Ryd( 3d)     0.00141       1.87248
 394    C 22  dxz    Ryd( 4d)     0.00010       3.48123
 395    C 22  dyz    Ryd( 3d)     0.00161       2.09388
 396    C 22  dyz    Ryd( 4d)     0.00008       3.67636
 397    C 22  dx2y2  Ryd( 3d)     0.00022       1.66994
 398    C 22  dx2y2  Ryd( 4d)     0.00015       3.02365
 399    C 22  dz2    Ryd( 3d)     0.00063       1.67528
 400    C 22  dz2    Ryd( 4d)     0.00014       3.07077
 401    C 22  f(0)   Ryd( 4f)     0.00004       3.44050
 402    C 22  f(c1)  Ryd( 4f)     0.00006       3.41491
 403    C 22  f(s1)  Ryd( 4f)     0.00019       3.45687
 404    C 22  f(c2)  Ryd( 4f)     0.00002       3.37369
 405    C 22  f(s2)  Ryd( 4f)     0.00082       3.82074
 406    C 22  f(c3)  Ryd( 4f)     0.00005       3.40288
 407    C 22  f(s3)  Ryd( 4f)     0.00007       3.44656

 408    H 23  s      Val( 1s)     0.76651      -0.00065
 409    H 23  s      Ryd( 2s)     0.00045       0.74938
 410    H 23  s      Ryd( 3s)     0.00002       1.83410
 411    H 23  px     Ryd( 2p)     0.00049       2.61884
 412    H 23  py     Ryd( 2p)     0.00036       2.49523
 413    H 23  pz     Ryd( 2p)     0.00016       2.35241

 414    H 24  s      Val( 1s)     0.76311       0.01473
 415    H 24  s      Ryd( 2s)     0.00075       0.76130
 416    H 24  s      Ryd( 3s)     0.00005       2.00981
 417    H 24  px     Ryd( 2p)     0.00028       2.46173
 418    H 24  py     Ryd( 2p)     0.00035       2.45812
 419    H 24  pz     Ryd( 2p)     0.00032       2.59477

 420    C 25  s      Cor( 1s)     1.99999     -10.27138
 421    C 25  s      Val( 2s)     0.95707      -0.18962
 422    C 25  s      Ryd( 3s)     0.00962       1.12112
 423    C 25  s      Ryd( 4s)     0.00010       1.02267
 424    C 25  s      Ryd( 5s)     0.00001      22.09746
 425    C 25  px     Val( 2p)     0.81083      -0.00570
 426    C 25  px     Ryd( 3p)     0.01178       1.07831
 427    C 25  px     Ryd( 4p)     0.00026       1.13175
 428    C 25  py     Val( 2p)     0.81983      -0.10931
 429    C 25  py     Ryd( 3p)     0.00156       0.99359
 430    C 25  py     Ryd( 4p)     0.00018       0.94471
 431    C 25  pz     Val( 2p)     0.94247      -0.09204
 432    C 25  pz     Ryd( 3p)     0.00161       1.11329
 433    C 25  pz     Ryd( 4p)     0.00023       1.03150
 434    C 25  dxy    Ryd( 3d)     0.00149       2.93567
 435    C 25  dxy    Ryd( 4d)     0.00016       2.24067
 436    C 25  dxz    Ryd( 3d)     0.00157       2.93732
 437    C 25  dxz    Ryd( 4d)     0.00028       2.31287
 438    C 25  dyz    Ryd( 3d)     0.00070       2.77478
 439    C 25  dyz    Ryd( 4d)     0.00006       2.13780
 440    C 25  dx2y2  Ryd( 3d)     0.00044       2.86538
 441    C 25  dx2y2  Ryd( 4d)     0.00034       2.30149
 442    C 25  dz2    Ryd( 3d)     0.00067       2.66416
 443    C 25  dz2    Ryd( 4d)     0.00018       2.09861
 444    C 25  f(0)   Ryd( 4f)     0.00013       3.21198
 445    C 25  f(c1)  Ryd( 4f)     0.00013       3.51866
 446    C 25  f(s1)  Ryd( 4f)     0.00012       3.30225
 447    C 25  f(c2)  Ryd( 4f)     0.00012       3.41008
 448    C 25  f(s2)  Ryd( 4f)     0.00027       3.38417
 449    C 25  f(c3)  Ryd( 4f)     0.00015       3.48732
 450    C 25  f(s3)  Ryd( 4f)     0.00017       3.47899

 451    H 26  s      Val( 1s)     0.89547      -0.04131
 452    H 26  s      Ryd( 2s)     0.00314       0.44846
 453    H 26  s      Ryd( 3s)     0.00009       2.11374
 454    H 26  px     Ryd( 2p)     0.00017       2.31818
 455    H 26  py     Ryd( 2p)     0.00027       2.28024
 456    H 26  pz     Ryd( 2p)     0.00064       2.60343

 457    O 27  s      Cor( 1s)     1.99999     -19.13631
 458    O 27  s      Val( 2s)     1.70231      -0.69318
 459    O 27  s      Ryd( 3s)     0.00064       1.37056
 460    O 27  s      Ryd( 4s)     0.00002       4.90407
 461    O 27  s      Ryd( 5s)     0.00000      41.42660
 462    O 27  px     Val( 2p)     1.56158      -0.28985
 463    O 27  px     Ryd( 3p)     0.00055       0.63260
 464    O 27  px     Ryd( 4p)     0.00016       3.57785
 465    O 27  py     Val( 2p)     1.54527      -0.27250
 466    O 27  py     Ryd( 3p)     0.00158       0.67518
 467    O 27  py     Ryd( 4p)     0.00002       3.00138
 468    O 27  pz     Val( 2p)     1.68145      -0.27743
 469    O 27  pz     Ryd( 3p)     0.00268       0.65731
 470    O 27  pz     Ryd( 4p)     0.00003       3.08536
 471    O 27  dxy    Ryd( 3d)     0.00425       1.86251
 472    O 27  dxy    Ryd( 4d)     0.00003       6.56969
 473    O 27  dxz    Ryd( 3d)     0.00525       1.97271
 474    O 27  dxz    Ryd( 4d)     0.00003       6.62371
 475    O 27  dyz    Ryd( 3d)     0.00054       1.63537
 476    O 27  dyz    Ryd( 4d)     0.00000       6.38020
 477    O 27  dx2y2  Ryd( 3d)     0.00644       1.98770
 478    O 27  dx2y2  Ryd( 4d)     0.00000       6.59741
 479    O 27  dz2    Ryd( 3d)     0.00228       1.75072
 480    O 27  dz2    Ryd( 4d)     0.00001       6.41974
 481    O 27  f(0)   Ryd( 4f)     0.00005       5.47474
 482    O 27  f(c1)  Ryd( 4f)     0.00011       5.77072
 483    O 27  f(s1)  Ryd( 4f)     0.00002       5.24702
 484    O 27  f(c2)  Ryd( 4f)     0.00009       5.70191
 485    O 27  f(s2)  Ryd( 4f)     0.00004       5.54226
 486    O 27  f(c3)  Ryd( 4f)     0.00009       5.79960
 487    O 27  f(s3)  Ryd( 4f)     0.00012       5.82576

 488    C 28  s      Cor( 1s)     1.99998     -10.21105
 489    C 28  s      Val( 2s)     0.88683      -0.09293
 490    C 28  s      Ryd( 3s)     0.00837       2.45160
 491    C 28  s      Ryd( 4s)     0.00004       4.96909
 492    C 28  s      Ryd( 5s)     0.00000      12.77922
 493    C 28  px     Val( 2p)     0.97580       0.11568
 494    C 28  px     Ryd( 3p)     0.01655       1.02531
 495    C 28  px     Ryd( 4p)     0.00054       2.57775
 496    C 28  py     Val( 2p)     0.91132      -0.09252
 497    C 28  py     Ryd( 3p)     0.00199       0.84064
 498    C 28  py     Ryd( 4p)     0.00004       1.08571
 499    C 28  pz     Val( 2p)     0.91353      -0.09374
 500    C 28  pz     Ryd( 3p)     0.00090       0.78591
 501    C 28  pz     Ryd( 4p)     0.00006       1.06289
 502    C 28  dxy    Ryd( 3d)     0.00074       3.50200
 503    C 28  dxy    Ryd( 4d)     0.00008       2.06378
 504    C 28  dxz    Ryd( 3d)     0.00084       3.44602
 505    C 28  dxz    Ryd( 4d)     0.00005       1.88601
 506    C 28  dyz    Ryd( 4d)     0.00001       2.92485
 507    C 28  dyz    Ryd( 3d)     0.00005       1.07905
 508    C 28  dx2y2  Ryd( 3d)     0.00069       3.73957
 509    C 28  dx2y2  Ryd( 4d)     0.00019       3.41311
 510    C 28  dz2    Ryd( 3d)     0.00023       3.20764
 511    C 28  dz2    Ryd( 4d)     0.00008       2.24628
 512    C 28  f(0)   Ryd( 4f)     0.00024       3.01377
 513    C 28  f(c1)  Ryd( 4f)     0.00038       3.40893
 514    C 28  f(s1)  Ryd( 4f)     0.00004       2.75051
 515    C 28  f(c2)  Ryd( 4f)     0.00038       3.25731
 516    C 28  f(s2)  Ryd( 4f)     0.00001       3.07253
 517    C 28  f(c3)  Ryd( 4f)     0.00067       3.60243
 518    C 28  f(s3)  Ryd( 4f)     0.00061       3.57775

 519    N 29  s      Cor( 1s)     1.99999     -14.30935
 520    N 29  s      Val( 2s)     1.58489      -0.36683
 521    N 29  s      Ryd( 3s)     0.00179       2.28161
 522    N 29  s      Ryd( 4s)     0.00002       2.44178
 523    N 29  s      Ryd( 5s)     0.00000      29.36482
 524    N 29  px     Val( 2p)     1.51959      -0.13783
 525    N 29  px     Ryd( 3p)     0.00209       0.53321
 526    N 29  px     Ryd( 4p)     0.00010       4.65636
 527    N 29  py     Val( 2p)     1.08989      -0.14234
 528    N 29  py     Ryd( 3p)     0.00030       0.60662
 529    N 29  py     Ryd( 4p)     0.00000       2.59307
 530    N 29  pz     Val( 2p)     1.10380      -0.14338
 531    N 29  pz     Ryd( 3p)     0.00054       0.59461
 532    N 29  pz     Ryd( 4p)     0.00000       2.52324
 533    N 29  dxy    Ryd( 3d)     0.00499       1.60238
 534    N 29  dxy    Ryd( 4d)     0.00001       5.06058
 535    N 29  dxz    Ryd( 3d)     0.00504       1.57278
 536    N 29  dxz    Ryd( 4d)     0.00001       5.00409
 537    N 29  dyz    Ryd( 3d)     0.00002       1.33760
 538    N 29  dyz    Ryd( 4d)     0.00000       4.34505
 539    N 29  dx2y2  Ryd( 3d)     0.00802       2.11094
 540    N 29  dx2y2  Ryd( 4d)     0.00001       5.11599
 541    N 29  dz2    Ryd( 3d)     0.00263       1.62410
 542    N 29  dz2    Ryd( 4d)     0.00000       4.59331
 543    N 29  f(0)   Ryd( 4f)     0.00010       4.25083
 544    N 29  f(c1)  Ryd( 4f)     0.00008       4.82454
 545    N 29  f(s1)  Ryd( 4f)     0.00002       4.00500
 546    N 29  f(c2)  Ryd( 4f)     0.00017       4.45037
 547    N 29  f(s2)  Ryd( 4f)     0.00000       4.39270
 548    N 29  f(c3)  Ryd( 4f)     0.00014       5.07783
 549    N 29  f(s3)  Ryd( 4f)     0.00024       4.71912

     Population inversion found on atom  C  5
     Population inversion found on atom  C  6
     Population inversion found on atom  C 25
     Population inversion found on atom  C 28


 Summary of Natural Population Analysis:

                                     Natural Population
             Natural    ---------------------------------------------
[...]
  203.  0.00013     1.47656  332.   RY ( 5) C 15
  204.  0.00013     2.42636  401.   RY ( 2) H 21
  205.  0.00012     2.56697  174.   RY ( 7) C  4
  206.  0.00012     1.60785  333.   RY ( 6) C 15
  207.  0.00012     2.33486  437.   RY ( 2) H 24
  208.  0.00012     1.38019  201.   RY ( 8) C  5
  209.  0.00012     3.36955  268.   RY ( 8) N 10
  210.  0.00012     2.21809  365.   RY ( 2) H 18
  211.  0.00012     2.61711  377.   RY ( 9) C 19
  212.  0.00012     2.26055  468.   RY ( 2) H 26
  213.  0.00011     3.06021  151.   RY (10) C  3
  214.  0.00011     2.31136  100.   RY (11) C  1
  215.  0.00011     2.37748  123.   RY ( 8) C  2
  216.  0.00010     2.41946  396.   RY ( 2) H 20
  217.  0.00011     2.34225  432.   RY ( 2) H 23
  218.  0.00010     2.20276  230.   RY (11) C  6
  219.  0.00010     1.99477  101.   RY (12) C  1
  220.  0.00010     2.25025  231.   RY (12) C  6
  221.  0.00010     2.10749  324.   RY ( 2) H 14
  222.  0.00010     1.88425  248.   RY ( 3) H  7
  223.  0.00010     1.92151  253.   RY ( 3) H  8
  224.  0.00010     1.35998  292.   RY ( 6) C 11
  225.  0.00010     2.10148  319.   RY ( 2) H 13
  226.  0.00010     2.61632  446.   RY ( 6) C 25
  227.  0.00009     2.43147  152.   RY (11) C  3
  228.  0.00009     2.12740  360.   RY ( 2) H 17
  229.  0.00009     2.59140  269.   RY ( 9) N 10
  230.  0.00009     1.92255  258.   RY ( 3) H  9
  231.  0.00009     2.33363  433.   RY ( 3) H 23
  232.  0.00009     1.41237  503.   RY ( 6) C 28
  233.  0.00008     1.47204  124.   RY ( 9) C  2
  234.  0.00008     3.55210  270.   RY (10) N 10
  235.  0.00008     3.03909  125.   RY (10) C  2
  236.  0.00008     2.17407  314.   RY ( 2) H 12
  237.  0.00008     2.12836  469.   RY ( 3) H 26
  238.  0.00008     2.39578  475.   RY ( 4) O 27
  239.  0.00008     2.34356  397.   RY ( 3) H 20
  240.  0.00007     2.35326  402.   RY ( 3) H 21
  241.  0.00007     2.20559  378.   RY (10) C 19
  242.  0.00007     2.74289  447.   RY ( 7) C 25
  243.  0.00007     2.66346  126.   RY (11) C  2
  244.  0.00007     2.72740  202.   RY ( 9) C  5
  245.  0.00007     1.59512  293.   RY ( 7) C 11
  246.  0.00007     2.20594  355.   RY ( 2) H 16
  247.  0.00007     2.13264  315.   RY ( 3) H 12
  248.  0.00007     0.83385  526.   RY ( 3) N 29
  249.  0.00007     1.45009  175.   RY ( 8) C  4
  250.  0.00007     3.25515  102.   RY (13) C  1
  251.  0.00007     2.53793  259.   RY ( 4) H  9
  252.  0.00007     2.18079  325.   RY ( 3) H 14
  253.  0.00007     2.10356  361.   RY ( 3) H 17
  254.  0.00007     2.29979  379.   RY (11) C 19
  255.  0.00007     1.43273  504.   RY ( 7) C 28
  256.  0.00007     2.30136  438.   RY ( 3) H 24
  257.  0.00006     2.10589  320.   RY ( 3) H 13
  258.  0.00006     2.16268  366.   RY ( 3) H 18
  259.  0.00006     2.53145  249.   RY ( 4) H  7
  260.  0.00006     2.33310  505.   RY ( 8) C 28
  261.  0.00006     2.27391  398.   RY ( 4) H 20
  262.  0.00005     1.71594  176.   RY ( 9) C  4
  263.  0.00005     2.09117  356.   RY ( 3) H 16
  264.  0.00005     3.26761  232.   RY (13) C  6
  265.  0.00005     2.49367  254.   RY ( 4) H  8
  266.  0.00005     1.69952  334.   RY ( 7) C 15
  267.  0.00005     2.66851  271.   RY (11) N 10
  268.  0.00005     2.26819  367.   RY ( 4) H 18
  269.  0.00005     2.07928  413.   RY ( 9) C 22
  270.  0.00005     2.41237  403.   RY ( 4) H 21
  271.  0.00005     2.91941  103.   RY (14) C  1
  272.  0.00005     1.73750  294.   RY ( 8) C 11
  273.  0.00005     1.66096  335.   RY ( 8) C 15
  274.  0.00005     2.35654  439.   RY ( 4) H 24
  275.  0.00005     2.01536  470.   RY ( 4) H 26
  276.  0.00004     2.68478  127.   RY (12) C  2
  277.  0.00004     3.72814  177.   RY (10) C  4
  278.  0.00004     1.47867  476.   RY ( 5) O 27
  279.  0.00004     2.67294  233.   RY (14) C  6
  280.  0.00004     2.21292  316.   RY ( 4) H 12
  281.  0.00004     1.67077  448.   RY ( 8) C 25
  282.  0.00004     1.86704  203.   RY (10) C  5
  283.  0.00003     2.24845  357.   RY ( 4) H 16
  284.  0.00003     2.21691  326.   RY ( 4) H 14
  285.  0.00003     2.16854  321.   RY ( 4) H 13
  286.  0.00003     2.36591  414.   RY (10) C 22
  287.  0.00003     1.13260  477.   RY ( 6) O 27
  288.  0.00003     3.83825  234.   RY (15) C  6
  289.  0.00003     2.83086  104.   RY (15) C  1
  290.  0.00003     2.33908  204.   RY (11) C  5
  291.  0.00003     2.17872  362.   RY ( 4) H 17
  292.  0.00003     2.36189  434.   RY ( 4) H 23
  293.  0.00003     2.95640  380.   RY (12) C 19
  294.  0.00003     1.92212  478.   RY ( 7) O 27
  295.  0.00002     2.96948  272.   RY (12) N 10
  296.  0.00002     2.06596  128.   RY (13) C  2
  297.  0.00002     2.89096  235.   RY (16) C  6
  298.  0.00002     2.28157  295.   RY ( 9) C 11
  299.  0.00002     1.84695  336.   RY ( 9) C 15
  300.  0.00002     3.05819  506.   RY ( 9) C 28
  301.  0.00002     3.39868  153.   RY (12) C  3
  302.  0.00002     2.51003  337.   RY (10) C 15
  303.  0.00002     2.58477  205.   RY (12) C  5
  304.  0.00002     2.60554  381.   RY (13) C 19
  305.  0.00002     2.76581  415.   RY (11) C 22
  306.  0.00002     2.57959  416.   RY (12) C 22
  307.  0.00002     2.95241  178.   RY (11) C  4
  308.  0.00002     3.49055  236.   RY (17) C  6
  309.  0.00002     3.42720  273.   RY (13) N 10
  310.  0.00002     1.69579  296.   RY (10) C 11
  311.  0.00002     2.67386  382.   RY (14) C 19
  312.  0.00002     2.48743  404.   RY ( 5) H 21
  313.  0.00002     2.08646  449.   RY ( 9) C 25
  314.  0.00002     1.47801  527.   RY ( 4) N 29
  315.  0.00002     3.57630  105.   RY (16) C  1
  316.  0.00001     2.78503  129.   RY (14) C  2
  317.  0.00001     3.30551  130.   RY (15) C  2
  318.  0.00002     3.60945  274.   RY (14) N 10
  319.  0.00001     2.34114  179.   RY (12) C  4
  320.  0.00001     2.52519  206.   RY (13) C  5
  321.  0.00001     2.05013  297.   RY (11) C 11
  322.  0.00001     3.40994  507.   RY (10) C 28
  323.  0.00001     2.62691  106.   RY (17) C  1
  324.  0.00001     3.39131  107.   RY (18) C  1
  325.  0.00001     3.79646  131.   RY (16) C  2
  326.  0.00001     3.60691  207.   RY (14) C  5
  327.  0.00001     2.94959  250.   RY ( 5) H  7
  328.  0.00001     4.05987  154.   RY (13) C  3
  329.  0.00001     2.92457  260.   RY ( 5) H  9
  330.  0.00001     4.32679  275.   RY (15) N 10
  331.  0.00001     2.64748  383.   RY (15) C 19
  332.  0.00001     2.18525  417.   RY (13) C 22
  333.  0.00001     2.53690  440.   RY ( 5) H 24
  334.  0.00001     2.06778  450.   RY (10) C 25
  335.  0.00001     3.61114  508.   RY (11) C 28
  336.  0.00001     1.22792  528.   RY ( 5) N 29
  337.  0.00001     3.43284  108.   RY (19) C  1
  338.  0.00001     2.66209  155.   RY (14) C  3
  339.  0.00001     2.50589  180.   RY (13) C  4
  340.  0.00001     3.50970  237.   RY (18) C  6
  341.  0.00001     2.92797  255.   RY ( 5) H  8
  342.  0.00001     3.34277  109.   RY (20) C  1
  343.  0.00000     2.83890  132.   RY (17) C  2
  344.  0.00001     2.95432  156.   RY (15) C  3
  345.  0.00000     4.16699  157.   RY (16) C  3
  346.  0.00000     2.93049  181.   RY (14) C  4
  347.  0.00001     2.58364  208.   RY (15) C  5
  348.  0.00001     3.53542  238.   RY (19) C  6
  349.  0.00001     2.49875  358.   RY ( 5) H 16
  350.  0.00001     2.40536  384.   RY (16) C 19
  351.  0.00001     2.46689  399.   RY ( 5) H 20
  352.  0.00001     2.60386  418.   RY (14) C 22
  353.  0.00001     1.68932  451.   RY (11) C 25
  354.  0.00000     2.48059  322.   RY ( 5) H 13
  355.  0.00000     3.40641  110.   RY (21) C  1
  356.  0.00000     3.29737  111.   RY (22) C  1
  357.  0.00000     3.15274  112.   RY (23) C  1
  358.  0.00000     4.19289  113.   RY (24) C  1
  359.  0.00000     3.81265  133.   RY (18) C  2
  360.  0.00000     4.25311  134.   RY (19) C  2
  361.  0.00000     2.73716  135.   RY (20) C  2
  362.  0.00000     3.37496  158.   RY (17) C  3
  363.  0.00000     2.61517  182.   RY (15) C  4
  364.  0.00000    18.06574  114.   RY (25) C  1
  365.  0.00000     3.76085  115.   RY (26) C  1
  366.  0.00000    12.27123  136.   RY (21) C  2
  367.  0.00000     6.06709  137.   RY (22) C  2
  368.  0.00000     3.32459  138.   RY (23) C  2
  369.  0.00000     4.24367  139.   RY (24) C  2
  370.  0.00000     4.63861  140.   RY (25) C  2
  371.  0.00000     3.64354  141.   RY (26) C  2
  372.  0.00000     3.79624  159.   RY (18) C  3
  373.  0.00000     5.46259  160.   RY (19) C  3
  374.  0.00000     3.96158  161.   RY (20) C  3
  375.  0.00000     7.96506  162.   RY (21) C  3
  376.  0.00000     3.13262  163.   RY (22) C  3
  377.  0.00000     5.58661  164.   RY (23) C  3
  378.  0.00000     2.18337  165.   RY (24) C  3
  379.  0.00000     3.41473  183.   RY (16) C  4
  380.  0.00000     5.06440  209.   RY (16) C  5
  381.  0.00000     5.31652  184.   RY (17) C  4
  382.  0.00000     3.62291  185.   RY (18) C  4
  383.  0.00000     4.03038  210.   RY (17) C  5
  384.  0.00000     4.65572  166.   RY (25) C  3
  385.  0.00000     3.41234  167.   RY (26) C  3
  386.  0.00000     4.06641  186.   RY (19) C  4
  387.  0.00000     3.86294  187.   RY (20) C  4
  388.  0.00000     3.05788  211.   RY (18) C  5
  389.  0.00000     7.35490  188.   RY (21) C  4
  390.  0.00000     3.27807  189.   RY (22) C  4
  391.  0.00000     3.23528  190.   RY (23) C  4
  392.  0.00000     2.39497  212.   RY (19) C  5
  393.  0.00000     3.10474  213.   RY (20) C  5
  394.  0.00000     3.60044  239.   RY (20) C  6
  395.  0.00000     3.59777  240.   RY (21) C  6
  396.  0.00000     4.49118  276.   RY (16) N 10
  397.  0.00000     4.15987  277.   RY (17) N 10
  398.  0.00000     2.57383  298.   RY (12) C 11
  399.  0.00000     3.47037  191.   RY (24) C  4
  400.  0.00000     8.55454  192.   RY (25) C  4
  401.  0.00000     3.57901  193.   RY (26) C  4
  402.  0.00000     3.35748  214.   RY (21) C  5
  403.  0.00000     3.22644  215.   RY (22) C  5
  404.  0.00000    12.40631  216.   RY (23) C  5
  405.  0.00000     3.54806  217.   RY (24) C  5
  406.  0.00000     4.74591  218.   RY (25) C  5
  407.  0.00000     5.61815  219.   RY (26) C  5
  408.  0.00000     2.70760  241.   RY (22) C  6
  409.  0.00000     5.18885  242.   RY (23) C  6
  410.  0.00000     4.86978  243.   RY (24) C  6
  411.  0.00000     6.83749  244.   RY (25) C  6
  412.  0.00000    13.56548  245.   RY (26) C  6
  413.  0.00000     5.05058  278.   RY (18) N 10
  414.  0.00000     4.25057  279.   RY (19) N 10
  415.  0.00000     4.03942  280.   RY (20) N 10
  416.  0.00000     2.27847  299.   RY (13) C 11
  417.  0.00000     2.56544  317.   RY ( 5) H 12
  418.  0.00000     2.67167  327.   RY ( 5) H 14
  419.  0.00000     1.99822  338.   RY (11) C 15
  420.  0.00001     2.27408  435.   RY ( 5) H 23
  421.  0.00001     2.89699  471.   RY ( 5) H 26
  422.  0.00001     5.17400  509.   RY (12) C 28
  423.  0.00001     2.77966  529.   RY ( 6) N 29
  424.  0.00000     2.24698  339.   RY (12) C 15
  425.  0.00000     2.48642  363.   RY ( 5) H 17
  426.  0.00000    15.94200  281.   RY (21) N 10
  427.  0.00000     9.52894  282.   RY (22) N 10
  428.  0.00000     6.70398  283.   RY (23) N 10
  429.  0.00000     7.01770  284.   RY (24) N 10
  430.  0.00000     4.49059  285.   RY (25) N 10
  431.  0.00000     5.39129  286.   RY (26) N 10
  432.  0.00000     3.29254  300.   RY (14) C 11
  433.  0.00000     2.08967  301.   RY (15) C 11
  434.  0.00000     2.50038  302.   RY (16) C 11
  435.  0.00000     5.55772  303.   RY (17) C 11
  436.  0.00000     3.28409  304.   RY (18) C 11
  437.  0.00000    15.49778  305.   RY (19) C 11
  438.  0.00000     3.25258  306.   RY (20) C 11
  439.  0.00000     3.01665  307.   RY (21) C 11
  440.  0.00000     3.70350  308.   RY (22) C 11
  441.  0.00000     3.24126  309.   RY (23) C 11
  442.  0.00000     3.53941  310.   RY (24) C 11
  443.  0.00000     5.36547  311.   RY (25) C 11
  444.  0.00000     3.93097  312.   RY (26) C 11
  445.  0.00000     3.66047  340.   RY (13) C 15
  446.  0.00000     4.59238  341.   RY (14) C 15
  447.  0.00000     2.35386  342.   RY (15) C 15
  448.  0.00000     2.53916  343.   RY (16) C 15
  449.  0.00000     2.81726  344.   RY (17) C 15
  450.  0.00000     2.53465  368.   RY ( 5) H 18
  451.  0.00000     2.88317  385.   RY (17) C 19
  452.  0.00000     3.01987  386.   RY (18) C 19
  453.  0.00000     3.35645  387.   RY (19) C 19
  454.  0.00000     3.07406  388.   RY (20) C 19
  455.  0.00000     1.96847  419.   RY (15) C 22
  456.  0.00000     3.45617  479.   RY ( 8) O 27
  457.  0.00000     2.25479  510.   RY (13) C 28
  458.  0.00000     3.16435  420.   RY (16) C 22
  459.  0.00000     3.29684  345.   RY (18) C 15
  460.  0.00000    17.15197  346.   RY (19) C 15
  461.  0.00000     3.02994  347.   RY (20) C 15
  462.  0.00000     2.86256  348.   RY (21) C 15
  463.  0.00000     3.24797  349.   RY (22) C 15
  464.  0.00000     2.99848  350.   RY (23) C 15
  465.  0.00000     3.51792  351.   RY (24) C 15
  466.  0.00000     3.61612  352.   RY (25) C 15
  467.  0.00000     4.76972  353.   RY (26) C 15
  468.  0.00000    20.33126  389.   RY (21) C 19
  469.  0.00000     3.13680  390.   RY (22) C 19
  470.  0.00000     3.61242  391.   RY (23) C 19
  471.  0.00000     3.46560  392.   RY (24) C 19
  472.  0.00000     3.65720  393.   RY (25) C 19
  473.  0.00000     3.86621  394.   RY (26) C 19
  474.  0.00000     3.32039  421.   RY (17) C 22
  475.  0.00000     8.56867  422.   RY (18) C 22
  476.  0.00000     7.78711  423.   RY (19) C 22
  477.  0.00000     4.17791  424.   RY (20) C 22
  478.  0.00000     4.61813  425.   RY (21) C 22
  479.  0.00000     5.96491  426.   RY (22) C 22
  480.  0.00000     3.53750  427.   RY (23) C 22
  481.  0.00000     3.41479  428.   RY (24) C 22
  482.  0.00000     3.36902  429.   RY (25) C 22
  483.  0.00000     3.25020  430.   RY (26) C 22
  484.  0.00000     2.22080  452.   RY (12) C 25
  485.  0.00000     2.98880  453.   RY (13) C 25
  486.  0.00000     1.65439  454.   RY (14) C 25
  487.  0.00000     2.72761  455.   RY (15) C 25
  488.  0.00000     3.30316  456.   RY (16) C 25
  489.  0.00000     2.86953  457.   RY (17) C 25
  490.  0.00000     2.76218  458.   RY (18) C 25
  491.  0.00000     6.86201  459.   RY (19) C 25
  492.  0.00000     3.47810  460.   RY (20) C 25
  493.  0.00000     5.64184  461.   RY (21) C 25
  494.  0.00000     5.80486  462.   RY (22) C 25
  495.  0.00000     3.21239  463.   RY (23) C 25
  496.  0.00000     2.31116  464.   RY (24) C 25
  497.  0.00000     8.41922  465.   RY (25) C 25
  498.  0.00000     3.12075  480.   RY ( 9) O 27
  499.  0.00000     2.21328  481.   RY (10) O 27
  500.  0.00000     2.69474  482.   RY (11) O 27
  501.  0.00000     4.00814  511.   RY (14) C 28
  502.  0.00000     2.37689  530.   RY ( 7) N 29
  503.  0.00000     4.77955  466.   RY (26) C 25
  504.  0.00000     4.00523  483.   RY (12) O 27
  505.  0.00000     5.91690  484.   RY (13) O 27
  506.  0.00000    14.90215  485.   RY (14) O 27
  507.  0.00000    14.96452  486.   RY (15) O 27
  508.  0.00000     8.02957  487.   RY (16) O 27
  509.  0.00000    14.38048  488.   RY (17) O 27
  510.  0.00000     3.65821  489.   RY (18) O 27
  511.  0.00000     7.11613  490.   RY (19) O 27
  512.  0.00000     9.42284  491.   RY (20) O 27
  513.  0.00000     6.01452  492.   RY (21) O 27
  514.  0.00000     6.09289  493.   RY (22) O 27
  515.  0.00000     6.76859  494.   RY (23) O 27
  516.  0.00000     5.99350  495.   RY (24) O 27
  517.  0.00000     5.67084  496.   RY (25) O 27
  518.  0.00000     5.94286  497.   RY (26) O 27
  519.  0.00000     3.18135  512.   RY (15) C 28
  520.  0.00000     2.91200  513.   RY (16) C 28
  521.  0.00000     2.11597  514.   RY (17) C 28
  522.  0.00000     4.93402  515.   RY (18) C 28
  523.  0.00000     7.81914  516.   RY (19) C 28
  524.  0.00000     3.56540  531.   RY ( 8) N 29
  525.  0.00000     3.76676  532.   RY ( 9) N 29
  526.  0.00000     1.38225  533.   RY (10) N 29
  527.  0.00000     2.91629  517.   RY (20) C 28
  528.  0.00000     2.93576  518.   RY (21) C 28
  529.  0.00000     2.84799  519.   RY (22) C 28
  530.  0.00000     2.91225  520.   RY (23) C 28
  531.  0.00000     3.18728  521.   RY (24) C 28
  532.  0.00000     2.78754  522.   RY (25) C 28
  533.  0.00000     2.53056  523.   RY (26) C 28
  534.  0.00000     3.43879  534.   RY (11) N 29
  535.  0.00000    13.65533  535.   RY (12) N 29
  536.  0.00000     8.17523  536.   RY (13) N 29
  537.  0.00000     4.93142  537.   RY (14) N 29
  538.  0.00000     2.52227  538.   RY (15) N 29
  539.  0.00000     4.91344  539.   RY (16) N 29
  540.  0.00000     4.58474  540.   RY (17) N 29
  541.  0.00000     4.95062  541.   RY (18) N 29
  542.  0.00000     4.63699  542.   RY (19) N 29
  543.  0.00000     3.96533  543.   RY (20) N 29
  544.  0.00000     4.30368  544.   RY (21) N 29
  545.  0.00000     3.95308  545.   RY (22) N 29
  546.  0.00000     4.69251  546.   RY (23) N 29
  547.  0.00000     4.41295  547.   RY (24) N 29
  548.  0.00000    11.74331  548.   RY (25) N 29
  549.  0.00000     4.07871  549.   RY (26) N 29

 Maximum scratch memory used by NBO was 2678058 words
 Maximum scratch memory used by G09NBO was 1965706 words

 Read Unf file /scratch/aloke/Gau-13220.EUF:
 Label Gaussian matrix elements                                         IVers= 1 NLab= 2 Version=AM64L-G09RevD.01
 Title Energy Optimisation and Frequency calculation                   
 NAtoms=    29 NBasis=   549 NBsUse=   549 ICharg=     0 Multip=     1 NE=   108 Len12L=8 Len4L=8
 Label GAUSSIAN SCALARS                                                 NI= 1 NR= 1 NTot=       1 LenBuf=    2000 N=    1000       1       1       1       1
 Label ALPHA ORBITAL ENERGIES                                           NI= 0 NR= 1 NTot=     549 LenBuf=    4000 N=     549       0       0       0       0
 Label ALPHA MO COEFFICIENTS                                            NI= 0 NR= 1 NTot=  301401 LenBuf=    4000 N=     549     549       0       0       0
 Store file  524 Len=  301401.
 Label NPA CHARGES                                                      NI= 0 NR= 1 NTot=      29 LenBuf=    4000 N=      29       0       0       0       0
 Recovered energy= -650.668022153     dipole=      0.000000000000      0.000000000000      0.000000000000
 1\1\GINC-CN099\SP\RB3LYP\def2TZVP\C12H14N2O1\ALOKE\28-Oct-2021\0\\# b3
 lyp/def2tzvp empiricaldispersion=gd3 pop=nbo6read pop=saveNBOs int=(gr
 id=ultrafine) scf=(tight,maxcycle=300)\\Energy Optimisation and Freque
 ncy calculation\\0,1\C,0,-0.289544,0.360543,0.586034\C,0,-0.830196,1.6
 42491,0.663257\C,0,-0.149866,2.751163,0.173349\C,0,1.097133,2.584624,-
 0.411864\C,0,1.659944,1.316018,-0.487033\C,0,0.984682,0.199464,0.00932
 \H,0,-1.822309,1.761465,1.079212\H,0,1.636756,3.437103,-0.805514\H,0,2
 .638256,1.196171,-0.932914\N,0,1.549767,-1.113269,-0.063563\C,0,2.3723
 4,-1.393291,-1.228983\H,0,3.36677,-0.920007,-1.195844\H,0,2.527175,-2.
 47207,-1.301474\H,0,1.863168,-1.056855,-2.131852\C,0,2.203805,-1.54002
 7,1.169941\H,0,3.164839,-1.024912,1.328521\H,0,2.393278,-2.615222,1.13
 4067\H,0,1.570254,-1.330814,2.029954\C,0,-1.102859,-0.829008,1.044926\
 H,0,-1.921702,-0.480847,1.675658\H,0,-0.499423,-1.505516,1.648437\C,0,
 -1.684876,-1.626195,-0.127394\H,0,-2.045742,-2.609458,0.204884\H,0,-0.
 912796,-1.842342,-0.871905\C,0,-2.852676,-0.972397,-0.815823\H,0,-3.18
 333,-1.480334,-1.748314\O,0,-3.433829,0.005331,-0.419735\C,0,-0.790591
 92,4.1487495,0.26179259\N,0,-1.26764149,5.18931618,0.32764286\\Version
 =AM64L-G09RevD.01\State=1-A\HF=-650.6680222\RMSD=6.445e-09\Dipole=1.62
 95674,-2.7909701,-0.2330501\Quadrupole=2.1371919,-8.6915217,6.5543298,
 7.8621693,-1.4933364,-1.3386719\PG=C01 [X(C12H14N2O1)]\\@


 Time has a wonderful way of weeding out the trivial.
                                -- Richard Ben Sapir
 Job cpu time:       0 days  0 hours 58 minutes 55.4 seconds.
 File lengths (MBytes):  RWF=    118 Int=      0 D2E=      0 Chk=     12 Scr=      1
 Normal termination of Gaussian 09 at Thu Oct 28 14:37:31 2021.
