 Entering Gaussian System, Link 0=g09
 Initial command:
 /home/apps/iiser/g09/g09/l1.exe "/scratch/aloke/Gau-18234.inp" -scrdir="/scratch/aloke/"
 Entering Link 1 = /home/apps/iiser/g09/g09/l1.exe PID=     18235.
  
 Copyright (c) 1988,1990,1992,1993,1995,1998,2003,2009,2013,
            Gaussian, Inc.  All Rights Reserved.
  
 This is part of the Gaussian(R) 09 program.  It is based on
 the Gaussian(R) 03 system (copyright 2003, Gaussian, Inc.),
 the Gaussian(R) 98 system (copyright 1998, Gaussian, Inc.),
 the Gaussian(R) 94 system (copyright 1995, Gaussian, Inc.),
 the Gaussian 92(TM) system (copyright 1992, Gaussian, Inc.),
 the Gaussian 90(TM) system (copyright 1990, Gaussian, Inc.),
 the Gaussian 88(TM) system (copyright 1988, Gaussian, Inc.),
 the Gaussian 86(TM) system (copyright 1986, Carnegie Mellon
 University), and the Gaussian 82(TM) system (copyright 1983,
 Carnegie Mellon University). Gaussian is a federally registered
 trademark of Gaussian, Inc.
  
 This software contains proprietary and confidential information,
 including trade secrets, belonging to Gaussian, Inc.
  
 This software is provided under written license and may be
 used, copied, transmitted, or stored only in accord with that
 written license.
  
 The following legend is applicable only to US Government
 contracts under FAR:
  
                    RESTRICTED RIGHTS LEGEND
  
 Use, reproduction and disclosure by the US Government is
 subject to restrictions as set forth in subparagraphs (a)
 and (c) of the Commercial Computer Software - Restricted
 Rights clause in FAR 52.227-19.
  
 Gaussian, Inc.
 340 Quinnipiac St., Bldg. 40, Wallingford CT 06492
  
  
 ---------------------------------------------------------------
 Warning -- This program may not be used in any manner that
 competes with the business of Gaussian, Inc. or will provide
 assistance to any competitor of Gaussian, Inc.  The licensee
 of this program is prohibited from giving any competitor of
 Gaussian, Inc. access to this program.  By using this program,
 the user acknowledges that Gaussian, Inc. is engaged in the
 business of creating and licensing software in the field of
 computational chemistry and represents and warrants to the
 licensee that it is not a competitor of Gaussian, Inc. and that
 it will not use this program in any manner prohibited above.
 ---------------------------------------------------------------
  

 Cite this work as:
 Gaussian 09, Revision D.01,
 M. J. Frisch, G. W. Trucks, H. B. Schlegel, G. E. Scuseria, 
 M. A. Robb, J. R. Cheeseman, G. Scalmani, V. Barone, B. Mennucci, 
 G. A. Petersson, H. Nakatsuji, M. Caricato, X. Li, H. P. Hratchian, 
 A. F. Izmaylov, J. Bloino, G. Zheng, J. L. Sonnenberg, M. Hada, 
 M. Ehara, K. Toyota, R. Fukuda, J. Hasegawa, M. Ishida, T. Nakajima, 
 Y. Honda, O. Kitao, H. Nakai, T. Vreven, J. A. Montgomery, Jr., 
 J. E. Peralta, F. Ogliaro, M. Bearpark, J. J. Heyd, E. Brothers, 
 K. N. Kudin, V. N. Staroverov, T. Keith, R. Kobayashi, J. Normand, 
 K. Raghavachari, A. Rendell, J. C. Burant, S. S. Iyengar, J. Tomasi, 
 M. Cossi, N. Rega, J. M. Millam, M. Klene, J. E. Knox, J. B. Cross, 
 V. Bakken, C. Adamo, J. Jaramillo, R. Gomperts, R. E. Stratmann, 
 O. Yazyev, A. J. Austin, R. Cammi, C. Pomelli, J. W. Ochterski, 
 R. L. Martin, K. Morokuma, V. G. Zakrzewski, G. A. Voth, 
 P. Salvador, J. J. Dannenberg, S. Dapprich, A. D. Daniels, 
 O. Farkas, J. B. Foresman, J. V. Ortiz, J. Cioslowski, 
 and D. J. Fox, Gaussian, Inc., Wallingford CT, 2013.
 
 ******************************************
 Gaussian 09:  AM64L-G09RevD.01 24-Apr-2013
                28-Oct-2021 
 ******************************************
 %LindaWorkers=cn004
 %chk=cyano_mod_bp_n.chk
 %mem=128GB
 %nprocshared=48
 Will use up to   48 processors via shared memory.
 SetLPE:  input flags=" -opt "Tsnet.Node.lindarsharg: ssh" "
 SetLPE:    new flags=" -opt "Tsnet.Node.lindarsharg: ssh"  -nodelist 'cn004'"
 Will use up to    1 processors via Linda.
 ----------------------------------------------------------------------
 # b3lyp/def2tzvp empiricaldispersion=gd3 pop=nbo6read pop=saveNBOs int
 =(grid=ultrafine) scf=(tight,maxcycle=300)
 ----------------------------------------------------------------------
 1/38=1,163=2/1;
 2/12=2,17=6,18=5,40=1/2;
 3/5=44,7=101,11=2,16=1,25=1,30=1,74=-5,75=-5,124=31/1,2,3;
 4//1;
 5/5=2,7=300,32=2,38=5/2;
 6/7=2,8=2,9=2,10=2,28=1,40=2,73=1,113=1,114=1,124=2103/1,12;
 99/5=1,9=1/99;
 ---------------------------------------------
 Energy Optimisation and Frequency calculation
 ---------------------------------------------
 Symbolic Z-matrix:
 Charge =  0 Multiplicity = 1
 C                    -0.80314  -0.84964   0.38167 
 C                    -2.0598   -1.41311   0.16624 
 C                    -3.11746  -0.66634  -0.33988 
 C                    -2.9233    0.67371  -0.64457 
 C                    -1.68299   1.25926  -0.42128 
 C                    -0.62326   0.51531   0.0986 
 H                    -2.20517  -2.46595   0.37956 
 H                    -3.73423   1.26678  -1.04844 
 H                    -1.53921   2.30664  -0.65035 
 N                     0.6588    1.0946    0.33896 
 C                     1.10521   2.10039  -0.61274 
 H                     0.61239   3.07447  -0.47993 
 H                     2.18028   2.24145  -0.49422 
 H                     0.93      1.74682  -1.62702 
 C                     0.87892   1.50395   1.72195 
 H                     0.55984   0.71976   2.40649 
 H                     1.9427    1.69192   1.88253 
 H                     0.32344   2.41985   1.97466 
 C                     0.34618  -1.72233   0.82641 
 H                     0.80771  -1.3408    1.74175 
 H                    -0.04946  -2.70733   1.07806 
 C                     1.44091  -1.88569  -0.24608 
 H                     2.01565  -2.79332  -0.02032 
 H                     1.01458  -2.01125  -1.24233 
 C                     2.46294  -0.77588  -0.28535 
 H                     2.82883  -0.45754   0.71421 
 O                     2.95449  -0.33234  -1.29389 
 C                    -4.48694  -1.32986  -0.57623 
 N                    -5.50658  -1.82388  -0.75221 
 
                          Input orientation:                          
 ---------------------------------------------------------------------
 Center     Atomic      Atomic             Coordinates (Angstroms)
 Number     Number       Type             X           Y           Z
 ---------------------------------------------------------------------
      1          6           0       -0.803143   -0.849642    0.381667
      2          6           0       -2.059800   -1.413105    0.166240
      3          6           0       -3.117455   -0.666342   -0.339884
      4          6           0       -2.923300    0.673714   -0.644571
      5          6           0       -1.682990    1.259263   -0.421275
      6          6           0       -0.623262    0.515306    0.098602
      7          1           0       -2.205166   -2.465952    0.379562
      8          1           0       -3.734230    1.266782   -1.048442
      9          1           0       -1.539212    2.306641   -0.650345
     10          7           0        0.658795    1.094598    0.338956
     11          6           0        1.105212    2.100387   -0.612735
     12          1           0        0.612389    3.074474   -0.479929
     13          1           0        2.180284    2.241454   -0.494220
     14          1           0        0.930000    1.746817   -1.627016
     15          6           0        0.878921    1.503947    1.721952
     16          1           0        0.559836    0.719757    2.406494
     17          1           0        1.942702    1.691915    1.882525
     18          1           0        0.323435    2.419846    1.974663
     19          6           0        0.346179   -1.722333    0.826405
     20          1           0        0.807710   -1.340795    1.741747
     21          1           0       -0.049460   -2.707332    1.078059
     22          6           0        1.440911   -1.885685   -0.246084
     23          1           0        2.015649   -2.793324   -0.020321
     24          1           0        1.014576   -2.011245   -1.242330
     25          6           0        2.462941   -0.775881   -0.285349
     26          1           0        2.828833   -0.457539    0.714208
     27          8           0        2.954488   -0.332339   -1.293892
     28          6           0       -4.486937   -1.329862   -0.576234
     29          7           0       -5.506578   -1.823883   -0.752207
 ---------------------------------------------------------------------
                    Distance matrix (angstroms):
                    1          2          3          4          5
     1  C    0.000000
     2  C    1.393946   0.000000
     3  C    2.431106   1.390126   0.000000
     4  C    2.805146   2.399554   1.387905   0.000000
     5  C    2.422050   2.762012   2.402555   1.389639   0.000000
     6  C    1.405548   2.405615   2.794559   2.422308   1.395266
     7  H    2.139657   1.084032   2.142071   3.379655   3.845937
     8  H    3.887896   3.385404   2.149287   1.082797   2.144990
     9  H    3.401319   3.843739   3.380217   2.140604   1.081733
    10  N    2.432932   3.702589   4.221587   3.738432   2.467595
    11  C    3.651483   4.792570   5.055705   4.273794   2.918598
    12  H    4.259667   5.262746   5.284416   4.276898   2.926977
    13  H    4.384392   5.636517   6.045257   5.341066   3.986842
    14  H    3.712168   4.705293   4.884868   4.118819   2.918773
    15  C    3.188273   4.423292   4.993230   4.554844   3.349131
    16  H    2.901836   4.053434   4.794406   4.630697   3.649330
    17  H    4.031346   5.348533   6.008799   5.576820   4.317444
    18  H    3.807409   4.862275   5.169275   4.522240   3.333649
    19  C    1.510074   2.513996   3.804222   4.312111   3.816300
    20  H    2.164693   3.272624   4.493884   4.865511   4.200304
    21  H    2.122266   2.558887   3.948265   4.760030   4.544260
    22  C    2.550144   3.556448   4.719565   5.075003   4.436231
    23  H    3.447475   4.306866   5.565513   6.066569   5.501287
    24  H    2.700146   3.434185   4.438114   4.803456   4.318242
    25  C    3.334315   4.589681   5.581737   5.589451   4.620501
    26  H    3.668185   5.011198   6.042603   6.017728   4.959161
    27  O    4.146672   5.333210   6.155500   5.998512   4.980046
    28  C    3.836472   2.539525   1.540000   2.542429   3.819646
    29  N    4.935293   3.590621   2.686600   3.594844   4.922919
                    6          7          8          9         10
     6  C    0.000000
     7  H    3.386629   0.000000
     8  H    3.399786   4.279081   0.000000
     9  H    2.146804   4.927661   2.461279   0.000000
    10  N    1.427242   4.569621   4.610118   2.697962   0.000000
    11  C    2.450735   5.726666   4.930004   2.652722   1.454859
    12  H    2.900150   6.274844   4.741735   2.290850   2.143043
    13  H    3.345280   6.492714   6.019852   3.723342   2.079517
    14  H    2.628117   5.621658   4.724428   2.713724   2.089016
    15  C    2.422649   5.203240   5.386325   3.481304   1.459007
    16  H    2.601516   4.680003   5.538486   4.033419   2.103571
    17  H    3.339306   6.062307   6.403035   4.349373   2.094710
    18  H    2.836038   5.727931   5.189737   3.220704   2.131733
    19  C    2.544905   2.694810   5.394404   4.687016   2.875836
    20  H    2.862292   3.492699   5.934124   4.953174   2.814452
    21  H    3.416721   2.278866   5.821780   5.508781   3.937330
    22  C    3.185024   3.744599   6.112603   5.159473   3.136250
    23  H    4.233796   4.252336   7.113551   6.248489   4.133530
    24  H    3.296069   3.633735   5.773579   5.051378   3.503328
    25  C    3.367377   5.008959   6.569605   5.064819   2.672712
    26  H    3.639005   5.430180   7.010992   5.346262   2.694255
    27  O    3.931646   5.828789   6.881597   5.250877   3.157934
    28  C    4.334516   2.722264   2.744469   4.681744   5.761435
    29  N    5.481100   3.548588   3.575078   5.728141   6.907966
                   11         12         13         14         15
    11  C    0.000000
    12  H    1.099708   0.000000
    13  H    1.090745   1.775506   0.000000
    14  H    1.088337   1.783076   1.758153   0.000000
    15  C    2.420271   2.717697   2.673739   3.358152   0.000000
    16  H    3.364419   3.725438   3.654525   4.178645   1.088746
    17  H    2.663562   3.043418   2.450991   3.653144   1.092129
    18  H    2.721738   2.556766   3.094365   3.713890   1.100590
    19  C    4.154569   4.978628   4.562850   4.288954   3.390384
    20  H    4.180171   4.946574   4.440272   4.571309   2.845702
    21  H    5.225535   6.024504   5.651044   5.302473   4.360202
    22  C    4.016951   5.034313   4.200181   3.919576   3.959622
    23  H    5.012809   6.050738   5.059711   4.936900   4.774328
    24  H    4.160544   5.158250   4.472582   3.778646   4.600211
    25  C    3.197425   4.276405   3.037735   3.242527   3.425783
    26  H    3.357772   4.337477   3.027454   3.734445   2.943660
    27  O    3.130807   4.213590   2.804154   2.921029   4.095759
    28  C    6.560493   6.738737   7.563918   6.317697   6.488803
    29  N    7.689936   7.842818   8.699504   7.412471   7.613837
                   16         17         18         19         20
    16  H    0.000000
    17  H    1.769732   0.000000
    18  H    1.769934   1.777751   0.000000
    19  C    2.916528   3.914251   4.298449   0.000000
    20  H    2.179267   3.241197   3.798841   1.093816   0.000000
    21  H    3.725711   4.895840   5.218324   1.090909   1.744318
    22  C    3.821098   4.193089   4.971727   1.541219   2.156228
    23  H    4.511160   4.872732   5.832726   2.156640   2.583378
    24  H    4.580292   4.933511   5.519175   2.193146   3.065455
    25  C    3.620050   3.325709   4.460696   2.571468   2.677319
    26  H    3.065649   2.601989   4.018098   2.788523   2.433293
    27  O    4.531459   3.900121   5.018009   3.637447   3.852369
    28  C    6.210275   7.517771   6.611131   5.047815   5.779830
    29  N    7.297182   8.648377   7.709352   6.062763   6.806130
                   21         22         23         24         25
    21  H    0.000000
    22  C    2.156308   0.000000
    23  H    2.340621   1.097771   0.000000
    24  H    2.645924   1.090886   1.762697   0.000000
    25  C    3.449861   1.509222   2.083359   2.130657   0.000000
    26  H    3.671311   2.210902   2.580057   3.087648   1.111005
    27  O    4.504492   2.408672   2.925722   2.566056   1.206444
    28  C    4.932069   5.962996   6.688376   5.583423   6.977987
    29  N    5.823272   6.966174   7.619670   6.542230   8.051677
                   26         27         28         29
    26  H    0.000000
    27  O    2.015919   0.000000
    28  C    7.479751   7.542207   0.000000
    29  N    8.573001   8.608587   1.146600   0.000000
 Stoichiometry    C12H14N2O
 Framework group  C1[X(C12H14N2O)]
 Deg. of freedom    81
 Full point group                 C1      NOp   1
 Largest Abelian subgroup         C1      NOp   1
 Largest concise Abelian subgroup C1      NOp   1
                         Standard orientation:                         
 ---------------------------------------------------------------------
 Center     Atomic      Atomic             Coordinates (Angstroms)
 Number     Number       Type             X           Y           Z
 ---------------------------------------------------------------------
      1          6           0       -0.333386   -0.590147    0.501484
      2          6           0       -1.689566   -0.891551    0.387392
      3          6           0       -2.606292    0.038351   -0.089415
      4          6           0       -2.166493    1.299363   -0.467183
      5          6           0       -0.821292    1.625981   -0.345304
      6          6           0        0.098954    0.698860    0.144964
      7          1           0       -2.029852   -1.884637    0.657780
      8          1           0       -2.866294    2.031872   -0.849486
      9          1           0       -0.484725    2.613513   -0.631046
     10          7           0        1.484831    1.011391    0.281670
     11          6           0        2.059917    1.872082   -0.740633
     12          1           0        1.784110    2.930276   -0.624391
     13          1           0        3.146820    1.794155   -0.692734
     14          1           0        1.748844    1.527992   -1.725170
     15          6           0        1.875942    1.413234    1.628612
     16          1           0        1.451994    0.734318    2.366655
     17          1           0        2.964126    1.384911    1.716933
     18          1           0        1.535251    2.431346    1.870843
     19          6           0        0.643325   -1.664054    0.917516
     20          1           0        1.233119   -1.354491    1.785126
     21          1           0        0.074799   -2.538286    1.237796
     22          6           0        1.607557   -2.083778   -0.209180
     23          1           0        2.001025   -3.081690    0.024176
     24          1           0        1.098393   -2.152837   -1.171477
     25          6           0        2.827650   -1.208453   -0.360609
     26          1           0        3.316919   -0.938325    0.599588
     27          8           0        3.329430   -0.908937   -1.416078
     28          6           0       -4.094330   -0.338560   -0.213023
     29          7           0       -5.202243   -0.619188   -0.305055
 ---------------------------------------------------------------------
 Rotational constants (GHZ):      1.1127311      0.3681250      0.3178938
 Standard basis: def2TZVP (5D, 7F)
 There are   624 symmetry adapted cartesian basis functions of A   symmetry.
 There are   549 symmetry adapted basis functions of A   symmetry.
   549 basis functions,   877 primitive gaussians,   624 cartesian basis functions
    54 alpha electrons       54 beta electrons
       nuclear repulsion energy       952.0791764268 Hartrees.
 NAtoms=   29 NActive=   29 NUniq=   29 SFac= 1.00D+00 NAtFMM=   60 NAOKFM=F Big=F
 Integral buffers will be    131072 words long.
 Raffenetti 2 integral format.
 Two-electron integral symmetry is turned on.
 Nuclear repulsion after empirical dispersion term =      952.0485543887 Hartrees.
 One-electron integrals computed using PRISM.
   1 Symmetry operations used in ECPInt.
 ECPInt:  NShTT=   24531 NPrTT=   74292 LenC2=   22871 LenP2D=   51713.
 LDataN:  DoStor=T MaxTD1= 6 Len=  172
 NBasis=   549 RedAO= T EigKep=  4.94D-06  NBF=   549
 NBsUse=   549 1.00D-06 EigRej= -1.00D+00 NBFU=   549
 ExpMin= 9.52D-02 ExpMax= 2.70D+04 ExpMxC= 9.22D+02 IAcc=3 IRadAn=         5 AccDes= 0.00D+00
 Harris functional with IExCor=  402 and IRadAn=       5 diagonalized for initial guess.
 HarFok:  IExCor=  402 AccDes= 0.00D+00 IRadAn=         5 IDoV= 1 UseB2=F ITyADJ=14
 ICtDFT=  3500011 ScaDFX=  1.000000  1.000000  1.000000  1.000000
 FoFCou: FMM=F IPFlag=           0 FMFlag=      100000 FMFlg1=           0
         NFxFlg=           0 DoJE=T BraDBF=F KetDBF=T FulRan=T
         wScrn=  0.000000 ICntrl=     500 IOpCl=  0 I1Cent=   200000004 NGrid=           0
         NMat0=    1 NMatS0=      1 NMatT0=    0 NMatD0=    1 NMtDS0=    0 NMtDT0=    0
 Petite list used in FoFCou.
 Keep R1 ints in memory in canonical form, NReq=11520166478.
 Requested convergence on RMS density matrix=1.00D-08 within 300 cycles.
 Requested convergence on MAX density matrix=1.00D-06.
 Requested convergence on             energy=1.00D-06.
 No special actions if energy rises.
 Integral accuracy reduced to 1.0D-05 until final iterations.
 Initial convergence to 1.0D-05 achieved.  Increase integral accuracy.
 SCF Done:  E(RB3LYP) =  -650.669600603     A.U. after   15 cycles
            NFock= 15  Conv=0.49D-08     -V/T= 2.0053

 **********************************************************************

            Population analysis using the SCF density.

 **********************************************************************

 Orbital symmetries:
       Occupied  (A) (A) (A) (A) (A) (A) (A) (A) (A) (A) (A) (A)
                 (A) (A) (A) (A) (A) (A) (A) (A) (A) (A) (A) (A)
                 (A) (A) (A) (A) (A) (A) (A) (A) (A) (A) (A) (A)
                 (A) (A) (A) (A) (A) (A) (A) (A) (A) (A) (A) (A)
                 (A) (A) (A) (A) (A) (A)
       Virtual   (A) (A) (A) (A) (A) (A) (A) (A) (A) (A) (A) (A)
                 (A) (A) (A) (A) (A) (A) (A) (A) (A) (A) (A) (A)
                 (A) (A) (A) (A) (A) (A) (A) (A) (A) (A) (A) (A)
                 (A) (A) (A) (A) (A) (A) (A) (A) (A) (A) (A) (A)
                 (A) (A) (A) (A) (A) (A) (A) (A) (A) (A) (A) (A)
                 (A) (A) (A) (A) (A) (A) (A) (A) (A) (A) (A) (A)
                 (A) (A) (A) (A) (A) (A) (A) (A) (A) (A) (A) (A)
                 (A) (A) (A) (A) (A) (A) (A) (A) (A) (A) (A) (A)
                 (A) (A) (A) (A) (A) (A) (A) (A) (A) (A) (A) (A)
                 (A) (A) (A) (A) (A) (A) (A) (A) (A) (A) (A) (A)
                 (A) (A) (A) (A) (A) (A) (A) (A) (A) (A) (A) (A)
                 (A) (A) (A) (A) (A) (A) (A) (A) (A) (A) (A) (A)
                 (A) (A) (A) (A) (A) (A) (A) (A) (A) (A) (A) (A)
                 (A) (A) (A) (A) (A) (A) (A) (A) (A) (A) (A) (A)
                 (A) (A) (A) (A) (A) (A) (A) (A) (A) (A) (A) (A)
                 (A) (A) (A) (A) (A) (A) (A) (A) (A) (A) (A) (A)
                 (A) (A) (A) (A) (A) (A) (A) (A) (A) (A) (A) (A)
                 (A) (A) (A) (A) (A) (A) (A) (A) (A) (A) (A) (A)
                 (A) (A) (A) (A) (A) (A) (A) (A) (A) (A) (A) (A)
                 (A) (A) (A) (A) (A) (A) (A) (A) (A) (A) (A) (A)
                 (A) (A) (A) (A) (A) (A) (A) (A) (A) (A) (A) (A)
                 (A) (A) (A) (A) (A) (A) (A) (A) (A) (A) (A) (A)
                 (A) (A) (A) (A) (A) (A) (A) (A) (A) (A) (A) (A)
                 (A) (A) (A) (A) (A) (A) (A) (A) (A) (A) (A) (A)
                 (A) (A) (A) (A) (A) (A) (A) (A) (A) (A) (A) (A)
                 (A) (A) (A) (A) (A) (A) (A) (A) (A) (A) (A) (A)
                 (A) (A) (A) (A) (A) (A) (A) (A) (A) (A) (A) (A)
                 (A) (A) (A) (A) (A) (A) (A) (A) (A) (A) (A) (A)
                 (A) (A) (A) (A) (A) (A) (A) (A) (A) (A) (A) (A)
                 (A) (A) (A) (A) (A) (A) (A) (A) (A) (A) (A) (A)
                 (A) (A) (A) (A) (A) (A) (A) (A) (A) (A) (A) (A)
                 (A) (A) (A) (A) (A) (A) (A) (A) (A) (A) (A) (A)
                 (A) (A) (A) (A) (A) (A) (A) (A) (A) (A) (A) (A)
                 (A) (A) (A) (A) (A) (A) (A) (A) (A) (A) (A) (A)
                 (A) (A) (A) (A) (A) (A) (A) (A) (A) (A) (A) (A)
                 (A) (A) (A) (A) (A) (A) (A) (A) (A) (A) (A) (A)
                 (A) (A) (A) (A) (A) (A) (A) (A) (A) (A) (A) (A)
                 (A) (A) (A) (A) (A) (A) (A) (A) (A) (A) (A) (A)
                 (A) (A) (A) (A) (A) (A) (A) (A) (A) (A) (A) (A)
                 (A) (A) (A) (A) (A) (A) (A) (A) (A) (A) (A) (A)
                 (A) (A) (A) (A) (A) (A) (A) (A) (A) (A) (A) (A)
                 (A) (A) (A)
 The electronic state is 1-A.
 Alpha  occ. eigenvalues --  -19.12098 -14.34685 -14.31787 -10.26364 -10.23936
 Alpha  occ. eigenvalues --  -10.23602 -10.21931 -10.21639 -10.21060 -10.20869
 Alpha  occ. eigenvalues --  -10.20776 -10.20584 -10.20303 -10.20177 -10.19332
 Alpha  occ. eigenvalues --   -1.04925  -0.96520  -0.91629  -0.88603  -0.82602
 Alpha  occ. eigenvalues --   -0.78278  -0.76914  -0.73346  -0.69412  -0.67570
 Alpha  occ. eigenvalues --   -0.62893  -0.61344  -0.58544  -0.55635  -0.52500
 Alpha  occ. eigenvalues --   -0.51745  -0.49059  -0.48478  -0.46715  -0.46426
 Alpha  occ. eigenvalues --   -0.46127  -0.45193  -0.44028  -0.42668  -0.41658
 Alpha  occ. eigenvalues --   -0.40842  -0.40415  -0.39716  -0.39062  -0.38303
 Alpha  occ. eigenvalues --   -0.37895  -0.36658  -0.36074  -0.35338  -0.34630
 Alpha  occ. eigenvalues --   -0.28988  -0.28234  -0.25953  -0.24317
 Alpha virt. eigenvalues --   -0.05740  -0.04247  -0.02416   0.01686   0.02823
 Alpha virt. eigenvalues --    0.03054   0.03377   0.04972   0.05297   0.06127
 Alpha virt. eigenvalues --    0.06966   0.07252   0.08164   0.08606   0.09445
 Alpha virt. eigenvalues --    0.10163   0.10816   0.11172   0.11979   0.12337
 Alpha virt. eigenvalues --    0.13205   0.14019   0.14398   0.14931   0.16551
 Alpha virt. eigenvalues --    0.17208   0.17823   0.18613   0.19489   0.19917
 Alpha virt. eigenvalues --    0.20564   0.20961   0.21719   0.22454   0.23135
 Alpha virt. eigenvalues --    0.24054   0.24725   0.25492   0.25689   0.27272
 Alpha virt. eigenvalues --    0.28165   0.28380   0.28695   0.29545   0.30333
 Alpha virt. eigenvalues --    0.31073   0.31655   0.32565   0.32778   0.33239
 Alpha virt. eigenvalues --    0.34921   0.35622   0.35898   0.36520   0.36783
 Alpha virt. eigenvalues --    0.37600   0.38510   0.38639   0.39238   0.39357
 Alpha virt. eigenvalues --    0.40046   0.40504   0.41166   0.41260   0.41888
 Alpha virt. eigenvalues --    0.42970   0.43253   0.43606   0.43858   0.44315
 Alpha virt. eigenvalues --    0.44907   0.45881   0.46444   0.46869   0.47524
 Alpha virt. eigenvalues --    0.47839   0.48548   0.48936   0.49367   0.50761
 Alpha virt. eigenvalues --    0.51114   0.52452   0.53067   0.53923   0.54029
 Alpha virt. eigenvalues --    0.56165   0.56836   0.58029   0.58386   0.59522
 Alpha virt. eigenvalues --    0.60339   0.61496   0.62186   0.63331   0.63954
 Alpha virt. eigenvalues --    0.64978   0.65794   0.66348   0.67173   0.67878
 Alpha virt. eigenvalues --    0.68638   0.68882   0.70621   0.71991   0.72451
 Alpha virt. eigenvalues --    0.74612   0.75329   0.77448   0.78575   0.78971
 Alpha virt. eigenvalues --    0.79847   0.80455   0.81057   0.82256   0.82971
 Alpha virt. eigenvalues --    0.85256   0.86015   0.86443   0.86650   0.88094
 Alpha virt. eigenvalues --    0.89121   0.89763   0.90401   0.92472   0.92859
 Alpha virt. eigenvalues --    0.93582   0.94810   0.95771   0.97903   0.98687
 Alpha virt. eigenvalues --    0.99550   1.00552   1.03350   1.03664   1.05311
 Alpha virt. eigenvalues --    1.05570   1.06081   1.07038   1.07762   1.09437
 Alpha virt. eigenvalues --    1.11156   1.12184   1.12777   1.13801   1.14715
 Alpha virt. eigenvalues --    1.17012   1.18312   1.19135   1.20089   1.20793
 Alpha virt. eigenvalues --    1.22571   1.23747   1.24648   1.25577   1.26270
 Alpha virt. eigenvalues --    1.26725   1.27736   1.29266   1.30110   1.31685
 Alpha virt. eigenvalues --    1.33279   1.33712   1.35220   1.37181   1.37884
 Alpha virt. eigenvalues --    1.39476   1.39631   1.41804   1.43287   1.45587
 Alpha virt. eigenvalues --    1.46290   1.47374   1.48065   1.49303   1.50215
 Alpha virt. eigenvalues --    1.50299   1.50679   1.52450   1.52782   1.54007
 Alpha virt. eigenvalues --    1.54380   1.54912   1.55379   1.56039   1.57111
 Alpha virt. eigenvalues --    1.57909   1.59136   1.59844   1.60294   1.60691
 Alpha virt. eigenvalues --    1.61331   1.62565   1.63347   1.64630   1.65999
 Alpha virt. eigenvalues --    1.67102   1.67682   1.68254   1.69365   1.72345
 Alpha virt. eigenvalues --    1.73530   1.75045   1.76324   1.78139   1.78607
 Alpha virt. eigenvalues --    1.80301   1.82002   1.83003   1.83489   1.85546
 Alpha virt. eigenvalues --    1.86934   1.88424   1.89716   1.90710   1.91643
 Alpha virt. eigenvalues --    1.92593   1.93956   1.95199   1.97007   1.98832
 Alpha virt. eigenvalues --    1.99714   2.01116   2.01585   2.04584   2.05800
 Alpha virt. eigenvalues --    2.07880   2.08564   2.09967   2.10954   2.12220
 Alpha virt. eigenvalues --    2.13813   2.14997   2.15875   2.16861   2.18294
 Alpha virt. eigenvalues --    2.19830   2.20982   2.21712   2.24143   2.24626
 Alpha virt. eigenvalues --    2.25617   2.26516   2.27656   2.28767   2.31019
 Alpha virt. eigenvalues --    2.31903   2.33567   2.34540   2.35363   2.36801
 Alpha virt. eigenvalues --    2.37369   2.38700   2.41286   2.42473   2.42708
 Alpha virt. eigenvalues --    2.43875   2.45254   2.46041   2.47887   2.48471
 Alpha virt. eigenvalues --    2.49109   2.49461   2.52044   2.52248   2.54321
 Alpha virt. eigenvalues --    2.55495   2.55858   2.57028   2.57821   2.59338
 Alpha virt. eigenvalues --    2.59911   2.60791   2.61930   2.62861   2.63340
 Alpha virt. eigenvalues --    2.64543   2.65468   2.66130   2.67242   2.67714
 Alpha virt. eigenvalues --    2.69753   2.70084   2.70680   2.71769   2.72230
 Alpha virt. eigenvalues --    2.72507   2.74289   2.75764   2.76630   2.77919
 Alpha virt. eigenvalues --    2.79307   2.80469   2.82191   2.82978   2.85157
 Alpha virt. eigenvalues --    2.85859   2.85971   2.86686   2.87355   2.89266
 Alpha virt. eigenvalues --    2.90223   2.90997   2.92912   2.93936   2.95157
 Alpha virt. eigenvalues --    2.97249   2.97745   2.98303   2.99746   3.00040
 Alpha virt. eigenvalues --    3.02273   3.03942   3.04605   3.05598   3.06044
 Alpha virt. eigenvalues --    3.07095   3.08227   3.09262   3.09359   3.10220
 Alpha virt. eigenvalues --    3.11192   3.12578   3.13695   3.14820   3.15151
 Alpha virt. eigenvalues --    3.15928   3.16876   3.17761   3.18341   3.19014
 Alpha virt. eigenvalues --    3.20684   3.21534   3.22256   3.23247   3.23869
 Alpha virt. eigenvalues --    3.24754   3.25135   3.26673   3.27505   3.29237
 Alpha virt. eigenvalues --    3.29581   3.30145   3.31082   3.31414   3.32004
 Alpha virt. eigenvalues --    3.33881   3.34207   3.34892   3.35414   3.35966
 Alpha virt. eigenvalues --    3.36935   3.37489   3.38307   3.40276   3.41929
 Alpha virt. eigenvalues --    3.42857   3.44103   3.45358   3.45820   3.47583
 Alpha virt. eigenvalues --    3.48817   3.49754   3.49987   3.50252   3.52450
 Alpha virt. eigenvalues --    3.53680   3.55265   3.57070   3.58427   3.58690
 Alpha virt. eigenvalues --    3.60431   3.62483   3.63630   3.64265   3.66495
 Alpha virt. eigenvalues --    3.67045   3.70227   3.71713   3.73410   3.75075
 Alpha virt. eigenvalues --    3.76101   3.76759   3.78064   3.78704   3.79786
 Alpha virt. eigenvalues --    3.82473   3.85967   3.87773   3.89172   3.90718
 Alpha virt. eigenvalues --    3.91890   3.95580   3.97242   3.97502   3.98910
 Alpha virt. eigenvalues --    3.99074   4.02176   4.03933   4.04538   4.06680
 Alpha virt. eigenvalues --    4.08628   4.09508   4.12123   4.14628   4.15460
 Alpha virt. eigenvalues --    4.16996   4.18646   4.20157   4.21973   4.23274
 Alpha virt. eigenvalues --    4.24547   4.26771   4.27378   4.29402   4.31746
 Alpha virt. eigenvalues --    4.32313   4.33281   4.34794   4.37571   4.38705
 Alpha virt. eigenvalues --    4.42062   4.43178   4.44952   4.46549   4.50928
 Alpha virt. eigenvalues --    4.52747   4.54232   4.55941   4.57698   4.58919
 Alpha virt. eigenvalues --    4.60607   4.62824   4.66005   4.69302   4.70346
 Alpha virt. eigenvalues --    4.74811   4.76841   4.79902   4.83793   4.89389
 Alpha virt. eigenvalues --    4.89647   4.91119   4.94429   4.98002   5.00777
 Alpha virt. eigenvalues --    5.04778   5.11442   5.12396   5.16551   5.18583
 Alpha virt. eigenvalues --    5.19415   5.23956   5.24882   5.28745   5.31951
 Alpha virt. eigenvalues --    5.34468   5.38140   5.39199   5.46668   5.47515
 Alpha virt. eigenvalues --    5.52964   5.55274   5.56002   5.64998   5.66543
 Alpha virt. eigenvalues --    5.69176   5.74759   5.76907   5.83231   5.96858
 Alpha virt. eigenvalues --    6.01004   6.12002   6.15213   6.32487   6.36166
 Alpha virt. eigenvalues --    6.40270   6.47162   6.84419   6.93302   7.06473
 Alpha virt. eigenvalues --   22.14033  22.42861  22.44813  22.47238  22.54489
 Alpha virt. eigenvalues --   22.70437  22.81150  22.85026  22.90789  22.95143
 Alpha virt. eigenvalues --   23.33613  23.50815  32.08334  32.73848  43.87449
          Condensed to atoms (all electrons):
               1          2          3          4          5          6
     1  C    5.218322   0.391652   0.032807  -0.089066   0.038047   0.343338
     2  C    0.391652   5.176040   0.426394  -0.008969  -0.091391   0.003267
     3  C    0.032807   0.426394   4.969591   0.447018   0.019320  -0.097966
     4  C   -0.089066  -0.008969   0.447018   5.072169   0.376353   0.028444
     5  C    0.038047  -0.091391   0.019320   0.376353   5.147350   0.373868
     6  C    0.343338   0.003267  -0.097966   0.028444   0.373868   5.145639
     7  H   -0.068876   0.436593  -0.045448   0.011217  -0.003955   0.019162
     8  H   -0.000804   0.008745  -0.041459   0.427232  -0.049896   0.010246
     9  H    0.009640  -0.001920   0.011175  -0.049680   0.444562  -0.062914
    10  N   -0.082521   0.003759   0.000197   0.007906  -0.063022   0.259804
    11  C    0.009142   0.000326   0.000161  -0.000877   0.003739  -0.078748
    12  H   -0.002427  -0.000013  -0.000132  -0.000609   0.000800  -0.018449
    13  H   -0.000302   0.000008   0.000023   0.000022   0.001811   0.010232
    14  H    0.004170  -0.000033  -0.000159   0.000394  -0.011763   0.009453
    15  C    0.019707   0.002274  -0.000109  -0.000341  -0.011445  -0.071975
    16  H    0.002094   0.002504  -0.000290   0.000384   0.001330  -0.010506
    17  H   -0.000617  -0.000040   0.000000   0.000127  -0.000053   0.014083
    18  H   -0.001006  -0.000456  -0.000171  -0.001158   0.000821  -0.003301
    19  C    0.307220  -0.060884   0.014962  -0.004902   0.018168  -0.094244
    20  H   -0.045039   0.003799  -0.001482   0.000567  -0.000388  -0.005392
    21  H   -0.074693   0.011414   0.001187   0.000428  -0.001043   0.008486
    22  C   -0.033234  -0.010562   0.001899  -0.002381   0.008463  -0.012165
    23  H    0.010605   0.000839  -0.000151   0.000045  -0.000155   0.000398
    24  H   -0.000228  -0.001782  -0.000457   0.000593  -0.001443   0.008935
    25  C    0.005282  -0.001610   0.000032   0.000574  -0.003236  -0.012754
    26  H    0.005467  -0.000500  -0.000009   0.000134  -0.001165   0.004253
    27  O    0.004231   0.000069  -0.000020   0.000077  -0.000408  -0.000623
    28  C    0.000157  -0.049407   0.079155  -0.052499   0.003030  -0.002167
    29  N   -0.000537   0.002939  -0.047475   0.002400  -0.000309  -0.000003
               7          8          9         10         11         12
     1  C   -0.068876  -0.000804   0.009640  -0.082521   0.009142  -0.002427
     2  C    0.436593   0.008745  -0.001920   0.003759   0.000326  -0.000013
     3  C   -0.045448  -0.041459   0.011175   0.000197   0.000161  -0.000132
     4  C    0.011217   0.427232  -0.049680   0.007906  -0.000877  -0.000609
     5  C   -0.003955  -0.049896   0.444562  -0.063022   0.003739   0.000800
     6  C    0.019162   0.010246  -0.062914   0.259804  -0.078748  -0.018449
     7  H    0.535764  -0.000305   0.000036  -0.000308   0.000036  -0.000002
     8  H   -0.000305   0.525992  -0.006624  -0.000293  -0.000018   0.000062
     9  H    0.000036  -0.006624   0.542246  -0.005061   0.002193   0.003422
    10  N   -0.000308  -0.000293  -0.005061   6.760657   0.268130  -0.029851
    11  C    0.000036  -0.000018   0.002193   0.268130   4.928052   0.397348
    12  H   -0.000002   0.000062   0.003422  -0.029851   0.397348   0.616866
    13  H    0.000000  -0.000004  -0.000036  -0.042789   0.410049  -0.038936
    14  H    0.000005  -0.000004  -0.002094  -0.043508   0.417360  -0.036793
    15  C    0.000058   0.000014  -0.000199   0.252051  -0.063895  -0.011728
    16  H    0.000047  -0.000002  -0.000042  -0.037099   0.010596  -0.000616
    17  H    0.000001  -0.000002  -0.000099  -0.051071  -0.003545  -0.003381
    18  H   -0.000009   0.000038   0.000808  -0.033310  -0.009963   0.015288
    19  C   -0.012955   0.000140  -0.000170   0.038186  -0.004194   0.000461
    20  H    0.000751  -0.000003  -0.000007  -0.012997   0.000498  -0.000088
    21  H    0.006184   0.000000   0.000012   0.001286  -0.000053   0.000008
    22  C   -0.000013  -0.000016   0.000040  -0.019882   0.004268  -0.000428
    23  H   -0.000035   0.000000  -0.000001   0.001527  -0.000058   0.000010
    24  H    0.000451  -0.000001  -0.000009  -0.003852  -0.000355  -0.000032
    25  C   -0.000019   0.000005   0.000000   0.052824  -0.013305   0.003444
    26  H    0.000010   0.000000  -0.000019  -0.016153   0.003473  -0.000440
    27  O    0.000004   0.000000  -0.000025  -0.017503  -0.001794   0.000059
    28  C   -0.001968  -0.005909  -0.000142  -0.000092  -0.000021  -0.000008
    29  N    0.001283   0.000965   0.000003  -0.000001   0.000000   0.000000
              13         14         15         16         17         18
     1  C   -0.000302   0.004170   0.019707   0.002094  -0.000617  -0.001006
     2  C    0.000008  -0.000033   0.002274   0.002504  -0.000040  -0.000456
     3  C    0.000023  -0.000159  -0.000109  -0.000290   0.000000  -0.000171
     4  C    0.000022   0.000394  -0.000341   0.000384   0.000127  -0.001158
     5  C    0.001811  -0.011763  -0.011445   0.001330  -0.000053   0.000821
     6  C    0.010232   0.009453  -0.071975  -0.010506   0.014083  -0.003301
     7  H    0.000000   0.000005   0.000058   0.000047   0.000001  -0.000009
     8  H   -0.000004  -0.000004   0.000014  -0.000002  -0.000002   0.000038
     9  H   -0.000036  -0.002094  -0.000199  -0.000042  -0.000099   0.000808
    10  N   -0.042789  -0.043508   0.252051  -0.037099  -0.051071  -0.033310
    11  C    0.410049   0.417360  -0.063895   0.010596  -0.003545  -0.009963
    12  H   -0.038936  -0.036793  -0.011728  -0.000616  -0.003381   0.015288
    13  H    0.533020  -0.011995  -0.002348   0.000383   0.004839  -0.003508
    14  H   -0.011995   0.519224   0.009495  -0.000309   0.000459  -0.000787
    15  C   -0.002348   0.009495   4.948296   0.417212   0.411695   0.390000
    16  H    0.000383  -0.000309   0.417212   0.544825  -0.021690  -0.030826
    17  H    0.004839   0.000459   0.411695  -0.021690   0.559255  -0.038050
    18  H   -0.003508  -0.000787   0.390000  -0.030826  -0.038050   0.602032
    19  C   -0.000795  -0.000357  -0.018922  -0.012075  -0.001100   0.003016
    20  H    0.000087   0.000103   0.002505   0.005002   0.000160  -0.000551
    21  H    0.000006  -0.000011   0.000268   0.000055  -0.000048   0.000007
    22  C    0.004837  -0.002611   0.010326   0.001243   0.000768  -0.001113
    23  H   -0.000073   0.000024  -0.000133  -0.000069  -0.000052   0.000020
    24  H   -0.000157   0.000750  -0.000362   0.000046   0.000031   0.000005
    25  C   -0.009331  -0.002354  -0.011664  -0.000948  -0.003857   0.001841
    26  H   -0.002543   0.001653  -0.007615  -0.000060   0.003666   0.000028
    27  O    0.007627   0.003409   0.002112   0.000037   0.000109  -0.000133
    28  C    0.000000   0.000006  -0.000010   0.000010   0.000001  -0.000012
    29  N    0.000000   0.000000   0.000000   0.000000   0.000000   0.000000
              19         20         21         22         23         24
     1  C    0.307220  -0.045039  -0.074693  -0.033234   0.010605  -0.000228
     2  C   -0.060884   0.003799   0.011414  -0.010562   0.000839  -0.001782
     3  C    0.014962  -0.001482   0.001187   0.001899  -0.000151  -0.000457
     4  C   -0.004902   0.000567   0.000428  -0.002381   0.000045   0.000593
     5  C    0.018168  -0.000388  -0.001043   0.008463  -0.000155  -0.001443
     6  C   -0.094244  -0.005392   0.008486  -0.012165   0.000398   0.008935
     7  H   -0.012955   0.000751   0.006184  -0.000013  -0.000035   0.000451
     8  H    0.000140  -0.000003   0.000000  -0.000016   0.000000  -0.000001
     9  H   -0.000170  -0.000007   0.000012   0.000040  -0.000001  -0.000009
    10  N    0.038186  -0.012997   0.001286  -0.019882   0.001527  -0.003852
    11  C   -0.004194   0.000498  -0.000053   0.004268  -0.000058  -0.000355
    12  H    0.000461  -0.000088   0.000008  -0.000428   0.000010  -0.000032
    13  H   -0.000795   0.000087   0.000006   0.004837  -0.000073  -0.000157
    14  H   -0.000357   0.000103  -0.000011  -0.002611   0.000024   0.000750
    15  C   -0.018922   0.002505   0.000268   0.010326  -0.000133  -0.000362
    16  H   -0.012075   0.005002   0.000055   0.001243  -0.000069   0.000046
    17  H   -0.001100   0.000160  -0.000048   0.000768  -0.000052   0.000031
    18  H    0.003016  -0.000551   0.000007  -0.001113   0.000020   0.000005
    19  C    5.084223   0.424827   0.414808   0.144553  -0.038680  -0.017537
    20  H    0.424827   0.594836  -0.026733  -0.057292   0.002849   0.006420
    21  H    0.414808  -0.026733   0.574421  -0.018416  -0.012145  -0.001353
    22  C    0.144553  -0.057292  -0.018416   5.630300   0.356343   0.315642
    23  H   -0.038680   0.002849  -0.012145   0.356343   0.596506  -0.016245
    24  H   -0.017537   0.006420  -0.001353   0.315642  -0.016245   0.571159
    25  C    0.005719  -0.005642   0.002989   0.138227  -0.020070   0.004170
    26  H    0.024571   0.008856  -0.001294  -0.233082   0.006469   0.014785
    27  O    0.004944   0.000363  -0.000411  -0.132648   0.002858   0.016038
    28  C   -0.001462   0.000004  -0.000087   0.000027   0.000000  -0.000006
    29  N   -0.000023   0.000000   0.000002   0.000000   0.000000   0.000000
              25         26         27         28         29
     1  C    0.005282   0.005467   0.004231   0.000157  -0.000537
     2  C   -0.001610  -0.000500   0.000069  -0.049407   0.002939
     3  C    0.000032  -0.000009  -0.000020   0.079155  -0.047475
     4  C    0.000574   0.000134   0.000077  -0.052499   0.002400
     5  C   -0.003236  -0.001165  -0.000408   0.003030  -0.000309
     6  C   -0.012754   0.004253  -0.000623  -0.002167  -0.000003
     7  H   -0.000019   0.000010   0.000004  -0.001968   0.001283
     8  H    0.000005   0.000000   0.000000  -0.005909   0.000965
     9  H    0.000000  -0.000019  -0.000025  -0.000142   0.000003
    10  N    0.052824  -0.016153  -0.017503  -0.000092  -0.000001
    11  C   -0.013305   0.003473  -0.001794  -0.000021   0.000000
    12  H    0.003444  -0.000440   0.000059  -0.000008   0.000000
    13  H   -0.009331  -0.002543   0.007627   0.000000   0.000000
    14  H   -0.002354   0.001653   0.003409   0.000006   0.000000
    15  C   -0.011664  -0.007615   0.002112  -0.000010   0.000000
    16  H   -0.000948  -0.000060   0.000037   0.000010   0.000000
    17  H   -0.003857   0.003666   0.000109   0.000001   0.000000
    18  H    0.001841   0.000028  -0.000133  -0.000012   0.000000
    19  C    0.005719   0.024571   0.004944  -0.001462  -0.000023
    20  H   -0.005642   0.008856   0.000363   0.000004   0.000000
    21  H    0.002989  -0.001294  -0.000411  -0.000087   0.000002
    22  C    0.138227  -0.233082  -0.132648   0.000027   0.000000
    23  H   -0.020070   0.006469   0.002858   0.000000   0.000000
    24  H    0.004170   0.014785   0.016038  -0.000006   0.000000
    25  C    4.660631   0.440895   0.668586  -0.000004   0.000000
    26  H    0.440895   0.781979  -0.074114   0.000001   0.000000
    27  O    0.668586  -0.074114   7.802796   0.000000   0.000000
    28  C   -0.000004   0.000001   0.000000   5.311584   0.986754
    29  N    0.000000   0.000000   0.000000   0.986754   6.016075
 Mulliken charges:
               1
     1  C   -0.002529
     2  C   -0.243057
     3  C    0.231406
     4  C   -0.165600
     5  C   -0.197991
     6  C    0.231599
     7  H    0.122291
     8  H    0.131900
     9  H    0.114905
    10  N   -0.187016
    11  C   -0.278545
    12  H    0.106166
    13  H    0.139874
    14  H    0.146273
    15  C   -0.265268
    16  H    0.128763
    17  H    0.128411
    18  H    0.110450
    19  C   -0.217497
    20  H    0.103986
    21  H    0.114726
    22  C   -0.093092
    23  H    0.109373
    24  H    0.104791
    25  C    0.099574
    26  H    0.040753
    27  O   -0.285641
    28  C   -0.266933
    29  N    0.037930
 Sum of Mulliken charges =   0.00000
 Mulliken charges with hydrogens summed into heavy atoms:
               1
     1  C   -0.002529
     2  C   -0.120766
     3  C    0.231406
     4  C   -0.033700
     5  C   -0.083086
     6  C    0.231599
    10  N   -0.187016
    11  C    0.113767
    15  C    0.102357
    19  C    0.001215
    22  C    0.121072
    25  C    0.140326
    27  O   -0.285641
    28  C   -0.266933
    29  N    0.037930
 Electronic spatial extent (au):  <R**2>=           3530.1698
 Charge=              0.0000 electrons
 Dipole moment (field-independent basis, Debye):
    X=              3.5804    Y=              1.3919    Z=              2.7614  Tot=              4.7309
 Quadrupole moment (field-independent basis, Debye-Ang):
   XX=           -127.0996   YY=            -80.0203   ZZ=            -92.3065
   XY=             -2.9432   XZ=              7.6237   YZ=             -4.6769
 Traceless Quadrupole moment (field-independent basis, Debye-Ang):
   XX=            -27.2908   YY=             19.7885   ZZ=              7.5023
   XY=             -2.9432   XZ=              7.6237   YZ=             -4.6769
 Octapole moment (field-independent basis, Debye-Ang**2):
  XXX=            184.7236  YYY=             -4.1810  ZZZ=              4.1005  XYY=             13.2209
  XXY=             39.8763  XXZ=             38.4400  XZZ=              0.6931  YZZ=              4.2990
  YYZ=             -1.5777  XYZ=             -0.7420
 Hexadecapole moment (field-independent basis, Debye-Ang**3):
 XXXX=          -4624.2241 YYYY=          -1002.8274 ZZZZ=           -442.5410 XXXY=           -140.3135
 XXXZ=             28.3747 YYYX=            -31.0773 YYYZ=            -13.9539 ZZZX=              8.8288
 ZZZY=             -1.0706 XXYY=           -718.2292 XXZZ=           -678.8442 YYZZ=           -250.0139
 XXYZ=            -43.9890 YYXZ=              2.3640 ZZXY=             12.6184
 N-N= 9.520485543887D+02 E-N=-3.416504473511D+03  KE= 6.472362594930D+02
 Running external command "gaunbo6 R"
         input file       "/scratch/aloke/Gau-18235.EIn"
         output file      "/scratch/aloke/Gau-18235.EOu"
         message file     "/scratch/aloke/Gau-18235.EMs"
         fchk file        "/scratch/aloke/Gau-18235.EFC"
         mat. el file     "/scratch/aloke/Gau-18235.EUF"

 Writing Wrt12E file "/scratch/aloke/Gau-18235.EUF"
 Gaussian matrix elements                                         Version   1 NLab= 7 Len12L=8 Len4L=8
 Write GAUSSIAN SCALARS               from file   501 offset           0 to matrix element file.
 Write OVERLAP                        from file   514 offset           0 to matrix element file.
 Write CORE HAMILTONIAN ALPHA         from file   515 offset           0 to matrix element file.
 Write CORE HAMILTONIAN BETA          from file   515 offset      150975 to matrix element file.
 Write KINETIC ENERGY                 from file   516 offset           0 to matrix element file.
 Write ORTHOGONAL BASIS               from file   685 offset           0 to matrix element file.
 Write DIPOLE INTEGRALS               from file   518 offset           0 to matrix element file.
 Array DIP VEL INTEGRALS               on  file    572 does not exist.
 Array R X DEL INTEGRALS               on  file    572 does not exist.
 Write ALPHA ORBITAL ENERGIES         from file     0 offset           0 to matrix element file.
 Write ALPHA MO COEFFICIENTS          from file 10524 offset           0 to matrix element file.
 Write ALPHA DENSITY MATRIX           from file     0 offset           0 to matrix element file.
 Write ALPHA SCF DENSITY MATRIX       from file 10528 offset           0 to matrix element file.
 Write ALPHA FOCK MATRIX              from file 10536 offset           0 to matrix element file.
 No 2e integrals to process.
 Perform NBO analysis...

 *********************************** NBO 6.0 ***********************************
             N A T U R A L   A T O M I C   O R B I T A L   A N D
          N A T U R A L   B O N D   O R B I T A L   A N A L Y S I S
 ************************* Aloke Das Software (101058) *************************
  (c) Copyright 1996-2016 Board of Regents of the University of Wisconsin System
      on behalf of the Theoretical Chemistry Institute.  All rights reserved.

          Cite this program as:

          NBO 6.0.  E. D. Glendening, J. K. Badenhoop, A. E. Reed,
          J. E. Carpenter, J. A. Bohmann, C. M. Morales, C. R. Landis,
          and F. Weinhold (Theoretical Chemistry Institute, University
          of Wisconsin, Madison, WI, 2013); http://nbo6.chem.wisc.edu/

       /E2PERT / : Analyze NBO Fock matrix
                   Print threshold set to 0.1
       /AONBO  / : Checkpoint the AO to NBO transformation
                   NBOs sorted by occupancy

 Filename set to /scratch/aloke/Gau-18235

 Job title:  Energy Optimisation and Frequency calculation


 NATURAL POPULATIONS:  Natural atomic orbital occupancies

  NAO Atom No lang   Type(AO)    Occupancy      Energy
 -------------------------------------------------------
   1    C  1  s      Cor( 1s)     1.99999     -10.21042
   2    C  1  s      Val( 2s)     0.92275      -0.12671
   3    C  1  s      Ryd( 3s)     0.00074       1.42863
   4    C  1  s      Ryd( 4s)     0.00012       2.21566
   5    C  1  s      Ryd( 5s)     0.00000      19.28018
   6    C  1  px     Val( 2p)     1.04834      -0.04053
   7    C  1  px     Ryd( 3p)     0.00425       1.04911
   8    C  1  px     Ryd( 4p)     0.00036       2.25283
   9    C  1  py     Val( 2p)     1.03580      -0.04412
  10    C  1  py     Ryd( 3p)     0.00352       1.05873
  11    C  1  py     Ryd( 4p)     0.00022       2.03145
  12    C  1  pz     Val( 2p)     0.99900      -0.11889
  13    C  1  pz     Ryd( 3p)     0.00215       0.77957
  14    C  1  pz     Ryd( 4p)     0.00009       1.51652
  15    C  1  dxy    Ryd( 3d)     0.00082       2.70212
  16    C  1  dxy    Ryd( 4d)     0.00068       3.90056
  17    C  1  dxz    Ryd( 3d)     0.00039       1.89056
  18    C  1  dxz    Ryd( 4d)     0.00026       3.41796
  19    C  1  dyz    Ryd( 3d)     0.00052       2.18992
  20    C  1  dyz    Ryd( 4d)     0.00021       3.46564
  21    C  1  dx2y2  Ryd( 3d)     0.00110       2.76476
  22    C  1  dx2y2  Ryd( 4d)     0.00057       4.00258
  23    C  1  dz2    Ryd( 3d)     0.00081       2.89550
  24    C  1  dz2    Ryd( 4d)     0.00007       3.56062
  25    C  1  f(0)   Ryd( 4f)     0.00043       3.32271
  26    C  1  f(c1)  Ryd( 4f)     0.00029       3.37760
  27    C  1  f(s1)  Ryd( 4f)     0.00033       3.32611
  28    C  1  f(c2)  Ryd( 4f)     0.00008       3.40717
  29    C  1  f(s2)  Ryd( 4f)     0.00022       3.41606
  30    C  1  f(c3)  Ryd( 4f)     0.00046       3.81212
  31    C  1  f(s3)  Ryd( 4f)     0.00032       3.80677

  32    C  2  s      Cor( 1s)     1.99999     -10.20767
  33    C  2  s      Val( 2s)     0.96455      -0.14121
  34    C  2  s      Ryd( 3s)     0.00063       2.29504
  35    C  2  s      Ryd( 4s)     0.00006       3.46175
  36    C  2  s      Ryd( 5s)     0.00000      17.23557
  37    C  2  px     Val( 2p)     1.04904      -0.04490
  38    C  2  px     Ryd( 3p)     0.00215       0.97932
  39    C  2  px     Ryd( 4p)     0.00012       1.95153
  40    C  2  py     Val( 2p)     1.14189      -0.07632
  41    C  2  py     Ryd( 3p)     0.00397       1.13882
  42    C  2  py     Ryd( 4p)     0.00015       2.09188
  43    C  2  pz     Val( 2p)     0.99169      -0.12649
  44    C  2  pz     Ryd( 3p)     0.00143       0.73932
  45    C  2  pz     Ryd( 4p)     0.00016       1.36302
  46    C  2  dxy    Ryd( 3d)     0.00132       2.15727
  47    C  2  dxy    Ryd( 4d)     0.00038       3.91504
  48    C  2  dxz    Ryd( 3d)     0.00052       1.75743
  49    C  2  dxz    Ryd( 4d)     0.00015       3.25128
  50    C  2  dyz    Ryd( 3d)     0.00075       1.80837
  51    C  2  dyz    Ryd( 4d)     0.00007       3.07600
  52    C  2  dx2y2  Ryd( 3d)     0.00098       2.15742
  53    C  2  dx2y2  Ryd( 4d)     0.00054       3.91137
  54    C  2  dz2    Ryd( 3d)     0.00096       2.00690
  55    C  2  dz2    Ryd( 4d)     0.00004       3.25853
  56    C  2  f(0)   Ryd( 4f)     0.00040       3.28483
  57    C  2  f(c1)  Ryd( 4f)     0.00031       3.40082
  58    C  2  f(s1)  Ryd( 4f)     0.00033       3.20290
  59    C  2  f(c2)  Ryd( 4f)     0.00020       3.39294
  60    C  2  f(s2)  Ryd( 4f)     0.00018       3.38368
  61    C  2  f(c3)  Ryd( 4f)     0.00041       3.78729
  62    C  2  f(s3)  Ryd( 4f)     0.00032       3.71803

  63    C  3  s      Cor( 1s)     1.99999     -10.23922
  64    C  3  s      Val( 2s)     0.92743      -0.13931
  65    C  3  s      Ryd( 3s)     0.00097       1.36709
  66    C  3  s      Ryd( 4s)     0.00024       2.72334
  67    C  3  s      Ryd( 5s)     0.00000      18.03570
  68    C  3  px     Val( 2p)     1.02486      -0.06482
  69    C  3  px     Ryd( 3p)     0.00637       1.12695
  70    C  3  px     Ryd( 4p)     0.00034       2.52946
  71    C  3  py     Val( 2p)     1.08484      -0.06675
  72    C  3  py     Ryd( 3p)     0.00251       0.97454
  73    C  3  py     Ryd( 4p)     0.00031       1.82305
  74    C  3  pz     Val( 2p)     1.07720      -0.13463
  75    C  3  pz     Ryd( 3p)     0.00150       0.72113
  76    C  3  pz     Ryd( 4p)     0.00011       1.42426
  77    C  3  dxy    Ryd( 3d)     0.00080       2.90376
  78    C  3  dxy    Ryd( 4d)     0.00041       3.89409
  79    C  3  dxz    Ryd( 3d)     0.00038       2.13823
  80    C  3  dxz    Ryd( 4d)     0.00012       3.16883
  81    C  3  dyz    Ryd( 3d)     0.00054       2.29448
  82    C  3  dyz    Ryd( 4d)     0.00010       3.26226
  83    C  3  dx2y2  Ryd( 3d)     0.00078       3.05544
  84    C  3  dx2y2  Ryd( 4d)     0.00052       3.96095
  85    C  3  dz2    Ryd( 3d)     0.00077       2.97439
  86    C  3  dz2    Ryd( 4d)     0.00006       3.29541
  87    C  3  f(0)   Ryd( 4f)     0.00035       3.36571
  88    C  3  f(c1)  Ryd( 4f)     0.00027       3.35107
  89    C  3  f(s1)  Ryd( 4f)     0.00033       3.34487
  90    C  3  f(c2)  Ryd( 4f)     0.00017       3.45421
  91    C  3  f(s2)  Ryd( 4f)     0.00021       3.45510
  92    C  3  f(c3)  Ryd( 4f)     0.00029       3.85538
  93    C  3  f(s3)  Ryd( 4f)     0.00024       3.81843

  94    C  4  s      Cor( 1s)     1.99999     -10.20856
  95    C  4  s      Val( 2s)     0.96916      -0.14569
  96    C  4  s      Ryd( 3s)     0.00067       1.65526
  97    C  4  s      Ryd( 4s)     0.00003       2.68355
  98    C  4  s      Ryd( 5s)     0.00000      20.25952
  99    C  4  px     Val( 2p)     1.09650      -0.05623
 100    C  4  px     Ryd( 3p)     0.00306       1.04451
 101    C  4  px     Ryd( 4p)     0.00012       1.86924
 102    C  4  py     Val( 2p)     1.08679      -0.06490
 103    C  4  py     Ryd( 3p)     0.00351       0.99739
 104    C  4  py     Ryd( 4p)     0.00015       1.95525
 105    C  4  pz     Val( 2p)     0.99728      -0.12699
 106    C  4  pz     Ryd( 3p)     0.00165       0.73261
 107    C  4  pz     Ryd( 4p)     0.00015       1.36210
 108    C  4  dxy    Ryd( 3d)     0.00068       2.12204
 109    C  4  dxy    Ryd( 4d)     0.00065       3.83933
 110    C  4  dxz    Ryd( 3d)     0.00043       1.81362
 111    C  4  dxz    Ryd( 4d)     0.00016       3.02699
 112    C  4  dyz    Ryd( 3d)     0.00075       1.87674
 113    C  4  dyz    Ryd( 4d)     0.00009       3.08100
 114    C  4  dx2y2  Ryd( 3d)     0.00141       2.15850
 115    C  4  dx2y2  Ryd( 4d)     0.00021       3.80962
 116    C  4  dz2    Ryd( 3d)     0.00094       1.96741
 117    C  4  dz2    Ryd( 4d)     0.00003       3.13748
 118    C  4  f(0)   Ryd( 4f)     0.00043       3.30738
 119    C  4  f(c1)  Ryd( 4f)     0.00026       3.31458
 120    C  4  f(s1)  Ryd( 4f)     0.00030       3.24249
 121    C  4  f(c2)  Ryd( 4f)     0.00008       3.36131
 122    C  4  f(s2)  Ryd( 4f)     0.00028       3.44495
 123    C  4  f(c3)  Ryd( 4f)     0.00040       3.73918
 124    C  4  f(s3)  Ryd( 4f)     0.00030       3.72900

 125    C  5  s      Cor( 1s)     1.99999     -10.20167
 126    C  5  s      Val( 2s)     0.97512      -0.14780
 127    C  5  s      Ryd( 3s)     0.00091       1.65817
 128    C  5  s      Ryd( 4s)     0.00006       1.70594
 129    C  5  s      Ryd( 5s)     0.00000      20.86948
 130    C  5  px     Val( 2p)     1.05941      -0.04671
 131    C  5  px     Ryd( 3p)     0.00236       0.97570
 132    C  5  px     Ryd( 4p)     0.00017       1.92082
 133    C  5  py     Val( 2p)     1.14211      -0.07366
 134    C  5  py     Ryd( 3p)     0.00334       1.10770
 135    C  5  py     Ryd( 4p)     0.00031       1.87946
 136    C  5  pz     Val( 2p)     1.03460      -0.12646
 137    C  5  pz     Ryd( 3p)     0.00180       0.73402
 138    C  5  pz     Ryd( 4p)     0.00017       1.32823
 139    C  5  dxy    Ryd( 3d)     0.00151       2.16266
 140    C  5  dxy    Ryd( 4d)     0.00038       3.83258
 141    C  5  dxz    Ryd( 3d)     0.00041       1.76628
 142    C  5  dxz    Ryd( 4d)     0.00018       3.26713
 143    C  5  dyz    Ryd( 3d)     0.00073       1.86398
 144    C  5  dyz    Ryd( 4d)     0.00007       3.06716
 145    C  5  dx2y2  Ryd( 3d)     0.00086       2.22411
 146    C  5  dx2y2  Ryd( 4d)     0.00042       3.86682
 147    C  5  dz2    Ryd( 3d)     0.00098       1.98352
 148    C  5  dz2    Ryd( 4d)     0.00003       3.24407
 149    C  5  f(0)   Ryd( 4f)     0.00039       3.30989
 150    C  5  f(c1)  Ryd( 4f)     0.00031       3.39488
 151    C  5  f(s1)  Ryd( 4f)     0.00032       3.21055
 152    C  5  f(c2)  Ryd( 4f)     0.00019       3.40317
 153    C  5  f(s2)  Ryd( 4f)     0.00018       3.40697
 154    C  5  f(c3)  Ryd( 4f)     0.00040       3.78627
 155    C  5  f(s3)  Ryd( 4f)     0.00029       3.70299

 156    C  6  s      Cor( 1s)     1.99999     -10.23589
 157    C  6  s      Val( 2s)     0.87709      -0.11406
 158    C  6  s      Ryd( 3s)     0.00106       1.24507
 159    C  6  s      Ryd( 4s)     0.00017       1.82960
 160    C  6  s      Ryd( 5s)     0.00000      20.59067
 161    C  6  px     Val( 2p)     0.90151      -0.02152
 162    C  6  px     Ryd( 3p)     0.00475       1.09114
 163    C  6  px     Ryd( 4p)     0.00050       1.94009
 164    C  6  py     Val( 2p)     1.04119      -0.04626
 165    C  6  py     Ryd( 3p)     0.00295       0.90852
 166    C  6  py     Ryd( 4p)     0.00047       2.01355
 167    C  6  pz     Val( 2p)     0.99108      -0.12149
 168    C  6  pz     Ryd( 3p)     0.00303       0.72939
 169    C  6  pz     Ryd( 4p)     0.00019       1.56793
 170    C  6  dxy    Ryd( 3d)     0.00108       3.09163
 171    C  6  dxy    Ryd( 4d)     0.00070       3.80559
 172    C  6  dxz    Ryd( 3d)     0.00053       2.40263
 173    C  6  dxz    Ryd( 4d)     0.00030       3.13512
 174    C  6  dyz    Ryd( 3d)     0.00050       2.40395
 175    C  6  dyz    Ryd( 4d)     0.00020       3.15494
 176    C  6  dx2y2  Ryd( 4d)     0.00072       3.45464
 177    C  6  dx2y2  Ryd( 3d)     0.00104       3.90242
 178    C  6  dz2    Ryd( 3d)     0.00053       3.15527
 179    C  6  dz2    Ryd( 4d)     0.00015       3.14035
 180    C  6  f(0)   Ryd( 4f)     0.00033       3.40568
 181    C  6  f(c1)  Ryd( 4f)     0.00021       3.40909
 182    C  6  f(s1)  Ryd( 4f)     0.00028       3.35663
 183    C  6  f(c2)  Ryd( 4f)     0.00015       3.49417
 184    C  6  f(s2)  Ryd( 4f)     0.00023       3.47926
 185    C  6  f(c3)  Ryd( 4f)     0.00035       3.82524
 186    C  6  f(s3)  Ryd( 4f)     0.00028       3.81665

 187    H  7  s      Val( 1s)     0.77740       0.02643
 188    H  7  s      Ryd( 2s)     0.00050       0.88501
 189    H  7  s      Ryd( 3s)     0.00009       1.79344
 190    H  7  px     Ryd( 2p)     0.00013       2.59158
 191    H  7  py     Ryd( 2p)     0.00067       2.76680
 192    H  7  pz     Ryd( 2p)     0.00017       2.19282

 193    H  8  s      Val( 1s)     0.77199       0.02998
 194    H  8  s      Ryd( 2s)     0.00031       0.74421
 195    H  8  s      Ryd( 3s)     0.00009       1.92044
 196    H  8  px     Ryd( 2p)     0.00033       2.66075
 197    H  8  py     Ryd( 2p)     0.00036       2.64734
 198    H  8  pz     Ryd( 2p)     0.00020       2.22811

 199    H  9  s      Val( 1s)     0.77856       0.02837
 200    H  9  s      Ryd( 2s)     0.00091       0.74477
 201    H  9  s      Ryd( 3s)     0.00009       1.87959
 202    H  9  px     Ryd( 2p)     0.00013       2.58941
 203    H  9  py     Ryd( 2p)     0.00067       2.78185
 204    H  9  pz     Ryd( 2p)     0.00019       2.20925

 205    N 10  s      Cor( 1s)     1.99999     -14.34665
 206    N 10  s      Val( 2s)     1.25300      -0.43379
 207    N 10  s      Ryd( 3s)     0.00126       1.32351
 208    N 10  s      Ryd( 4s)     0.00004       6.09859
 209    N 10  s      Ryd( 5s)     0.00000      25.31406
 210    N 10  px     Val( 2p)     1.31751      -0.20101
 211    N 10  px     Ryd( 3p)     0.00378       0.75491
 212    N 10  px     Ryd( 4p)     0.00015       3.09948
 213    N 10  py     Val( 2p)     1.61345      -0.23615
 214    N 10  py     Ryd( 3p)     0.00867       0.86188
 215    N 10  py     Ryd( 4p)     0.00013       2.78735
 216    N 10  pz     Val( 2p)     1.22058      -0.19913
 217    N 10  pz     Ryd( 3p)     0.00276       0.79281
 218    N 10  pz     Ryd( 4p)     0.00010       2.93972
 219    N 10  dxy    Ryd( 3d)     0.00124       2.53378
 220    N 10  dxy    Ryd( 4d)     0.00017       5.08096
 221    N 10  dxz    Ryd( 4d)     0.00020       2.04447
 222    N 10  dxz    Ryd( 3d)     0.00022       4.96743
 223    N 10  dyz    Ryd( 3d)     0.00211       1.98518
 224    N 10  dyz    Ryd( 4d)     0.00011       5.02487
 225    N 10  dx2y2  Ryd( 3d)     0.00237       2.28075
 226    N 10  dx2y2  Ryd( 4d)     0.00007       5.24268
 227    N 10  dz2    Ryd( 3d)     0.00162       2.16534
 228    N 10  dz2    Ryd( 4d)     0.00013       5.16226
 229    N 10  f(0)   Ryd( 4f)     0.00008       4.80198
 230    N 10  f(c1)  Ryd( 4f)     0.00011       4.86787
 231    N 10  f(s1)  Ryd( 4f)     0.00013       4.74881
 232    N 10  f(c2)  Ryd( 4f)     0.00003       4.72890
 233    N 10  f(s2)  Ryd( 4f)     0.00010       4.56834
 234    N 10  f(c3)  Ryd( 4f)     0.00020       4.66885
 235    N 10  f(s3)  Ryd( 4f)     0.00011       4.71287

 236    C 11  s      Cor( 1s)     1.99999     -10.20574
 237    C 11  s      Val( 2s)     1.08470      -0.22290
 238    C 11  s      Ryd( 3s)     0.00091       1.32777
 239    C 11  s      Ryd( 4s)     0.00002       1.97554
 240    C 11  s      Ryd( 5s)     0.00000      21.76248
 241    C 11  px     Val( 2p)     1.16619      -0.11773
 242    C 11  px     Ryd( 3p)     0.00189       0.72296
 243    C 11  px     Ryd( 4p)     0.00012       1.59447
 244    C 11  py     Val( 2p)     1.08713      -0.09968
 245    C 11  py     Ryd( 3p)     0.00161       0.71593
 246    C 11  py     Ryd( 4p)     0.00040       1.58639
 247    C 11  pz     Val( 2p)     1.05324      -0.10172
 248    C 11  pz     Ryd( 3p)     0.00198       0.62880
 249    C 11  pz     Ryd( 4p)     0.00007       1.53130
 250    C 11  dxy    Ryd( 3d)     0.00059       2.10334
 251    C 11  dxy    Ryd( 4d)     0.00007       2.70765
 252    C 11  dxz    Ryd( 3d)     0.00072       2.14690
 253    C 11  dxz    Ryd( 4d)     0.00007       2.69718
 254    C 11  dyz    Ryd( 3d)     0.00083       2.49395
 255    C 11  dyz    Ryd( 4d)     0.00010       2.83984
 256    C 11  dx2y2  Ryd( 3d)     0.00165       1.95713
 257    C 11  dx2y2  Ryd( 4d)     0.00010       3.09849
 258    C 11  dz2    Ryd( 3d)     0.00112       2.00577
 259    C 11  dz2    Ryd( 4d)     0.00012       3.07369
 260    C 11  f(0)   Ryd( 4f)     0.00009       3.45165
 261    C 11  f(c1)  Ryd( 4f)     0.00016       3.59266
 262    C 11  f(s1)  Ryd( 4f)     0.00025       3.67763
 263    C 11  f(c2)  Ryd( 4f)     0.00001       3.36471
 264    C 11  f(s2)  Ryd( 4f)     0.00004       3.43041
 265    C 11  f(c3)  Ryd( 4f)     0.00024       3.63839
 266    C 11  f(s3)  Ryd( 4f)     0.00008       3.38695

 267    H 12  s      Val( 1s)     0.83048       0.00128
 268    H 12  s      Ryd( 2s)     0.00231       0.58454
 269    H 12  s      Ryd( 3s)     0.00005       2.00064
 270    H 12  px     Ryd( 2p)     0.00012       2.16113
 271    H 12  py     Ryd( 2p)     0.00082       2.76504
 272    H 12  pz     Ryd( 2p)     0.00009       2.15182

 273    H 13  s      Val( 1s)     0.78541       0.02726
 274    H 13  s      Ryd( 2s)     0.00085       0.63700
 275    H 13  s      Ryd( 3s)     0.00005       1.92518
 276    H 13  px     Ryd( 2p)     0.00086       2.79334
 277    H 13  py     Ryd( 2p)     0.00008       2.15321
 278    H 13  pz     Ryd( 2p)     0.00009       2.17760

 279    H 14  s      Val( 1s)     0.78279       0.02886
 280    H 14  s      Ryd( 2s)     0.00055       0.50373
 281    H 14  s      Ryd( 3s)     0.00005       2.07033
 282    H 14  px     Ryd( 2p)     0.00011       2.20671
 283    H 14  py     Ryd( 2p)     0.00014       2.22481
 284    H 14  pz     Ryd( 2p)     0.00068       2.79170

 285    C 15  s      Cor( 1s)     1.99999     -10.21628
 286    C 15  s      Val( 2s)     1.08621      -0.23348
 287    C 15  s      Ryd( 3s)     0.00095       1.25623
 288    C 15  s      Ryd( 4s)     0.00004       2.21267
 289    C 15  s      Ryd( 5s)     0.00000      21.40750
 290    C 15  px     Val( 2p)     1.18284      -0.12770
 291    C 15  px     Ryd( 3p)     0.00147       0.72465
 292    C 15  px     Ryd( 4p)     0.00012       1.51472
 293    C 15  py     Val( 2p)     1.17624      -0.12463
 294    C 15  py     Ryd( 3p)     0.00192       0.67517
 295    C 15  py     Ryd( 4p)     0.00025       1.50464
 296    C 15  pz     Val( 2p)     0.93645      -0.09415
 297    C 15  pz     Ryd( 3p)     0.00124       0.63784
 298    C 15  pz     Ryd( 4p)     0.00018       1.49701
 299    C 15  dxy    Ryd( 3d)     0.00072       1.96159
 300    C 15  dxy    Ryd( 4d)     0.00005       2.67344
 301    C 15  dxz    Ryd( 3d)     0.00057       2.16843
 302    C 15  dxz    Ryd( 4d)     0.00007       2.71047
 303    C 15  dyz    Ryd( 3d)     0.00128       2.17336
 304    C 15  dyz    Ryd( 4d)     0.00007       2.86434
 305    C 15  dx2y2  Ryd( 3d)     0.00153       1.99006
 306    C 15  dx2y2  Ryd( 4d)     0.00005       2.95488
 307    C 15  dz2    Ryd( 3d)     0.00083       2.61138
 308    C 15  dz2    Ryd( 4d)     0.00012       3.05986
 309    C 15  f(0)   Ryd( 4f)     0.00017       3.55624
 310    C 15  f(c1)  Ryd( 4f)     0.00017       3.60661
 311    C 15  f(s1)  Ryd( 4f)     0.00020       3.58485
 312    C 15  f(c2)  Ryd( 4f)     0.00004       3.36680
 313    C 15  f(s2)  Ryd( 4f)     0.00003       3.50964
 314    C 15  f(c3)  Ryd( 4f)     0.00028       3.58463
 315    C 15  f(s3)  Ryd( 4f)     0.00004       3.20875

 316    H 16  s      Val( 1s)     0.79808       0.01083
 317    H 16  s      Ryd( 2s)     0.00055       0.70256
 318    H 16  s      Ryd( 3s)     0.00004       1.90147
 319    H 16  px     Ryd( 2p)     0.00017       2.24062
 320    H 16  py     Ryd( 2p)     0.00031       2.38570
 321    H 16  pz     Ryd( 2p)     0.00042       2.62623

 322    H 17  s      Val( 1s)     0.79953       0.00881
 323    H 17  s      Ryd( 2s)     0.00085       0.71910
 324    H 17  s      Ryd( 3s)     0.00004       1.80513
 325    H 17  px     Ryd( 2p)     0.00091       2.73188
 326    H 17  py     Ryd( 2p)     0.00006       2.08990
 327    H 17  pz     Ryd( 2p)     0.00011       2.21618

 328    H 18  s      Val( 1s)     0.82201       0.00007
 329    H 18  s      Ryd( 2s)     0.00282       0.53644
 330    H 18  s      Ryd( 3s)     0.00003       2.01409
 331    H 18  px     Ryd( 2p)     0.00013       2.16655
 332    H 18  py     Ryd( 2p)     0.00066       2.66562
 333    H 18  pz     Ryd( 2p)     0.00014       2.23612

 334    C 19  s      Cor( 1s)     1.99999     -10.20287
 335    C 19  s      Val( 2s)     1.04503      -0.21440
 336    C 19  s      Ryd( 3s)     0.00066       1.63314
 337    C 19  s      Ryd( 4s)     0.00002       2.45020
 338    C 19  s      Ryd( 5s)     0.00000      20.71469
 339    C 19  px     Val( 2p)     1.10100      -0.10115
 340    C 19  px     Ryd( 3p)     0.00290       0.91505
 341    C 19  px     Ryd( 4p)     0.00015       1.65368
 342    C 19  py     Val( 2p)     1.12407      -0.10587
 343    C 19  py     Ryd( 3p)     0.00176       0.89261
 344    C 19  py     Ryd( 4p)     0.00023       1.64802
 345    C 19  pz     Val( 2p)     1.11561      -0.10912
 346    C 19  pz     Ryd( 3p)     0.00085       0.73028
 347    C 19  pz     Ryd( 4p)     0.00019       1.50407
 348    C 19  dxy    Ryd( 3d)     0.00151       2.37210
 349    C 19  dxy    Ryd( 4d)     0.00012       3.79511
 350    C 19  dxz    Ryd( 3d)     0.00132       2.10926
 351    C 19  dxz    Ryd( 4d)     0.00011       3.63582
 352    C 19  dyz    Ryd( 3d)     0.00059       1.91281
 353    C 19  dyz    Ryd( 4d)     0.00014       3.15404
 354    C 19  dx2y2  Ryd( 3d)     0.00026       2.01169
 355    C 19  dx2y2  Ryd( 4d)     0.00025       3.13396
 356    C 19  dz2    Ryd( 3d)     0.00069       1.94305
 357    C 19  dz2    Ryd( 4d)     0.00016       3.25438
 358    C 19  f(0)   Ryd( 4f)     0.00001       3.47038
 359    C 19  f(c1)  Ryd( 4f)     0.00029       3.67321
 360    C 19  f(s1)  Ryd( 4f)     0.00001       3.43750
 361    C 19  f(c2)  Ryd( 4f)     0.00005       3.45178
 362    C 19  f(s2)  Ryd( 4f)     0.00033       3.68566
 363    C 19  f(c3)  Ryd( 4f)     0.00020       3.67221
 364    C 19  f(s3)  Ryd( 4f)     0.00006       3.50249

 365    H 20  s      Val( 1s)     0.78893       0.01029
 366    H 20  s      Ryd( 2s)     0.00157       0.67422
 367    H 20  s      Ryd( 3s)     0.00005       2.02580
 368    H 20  px     Ryd( 2p)     0.00031       2.48853
 369    H 20  py     Ryd( 2p)     0.00015       2.34264
 370    H 20  pz     Ryd( 2p)     0.00062       2.75812

 371    H 21  s      Val( 1s)     0.78349       0.01796
 372    H 21  s      Ryd( 2s)     0.00054       0.79939
 373    H 21  s      Ryd( 3s)     0.00003       1.83253
 374    H 21  px     Ryd( 2p)     0.00028       2.48150
 375    H 21  py     Ryd( 2p)     0.00059       2.71505
 376    H 21  pz     Ryd( 2p)     0.00017       2.36857

 377    C 22  s      Cor( 1s)     1.99999     -10.19316
 378    C 22  s      Val( 2s)     1.09271      -0.23549
 379    C 22  s      Ryd( 3s)     0.00135       1.08322
 380    C 22  s      Ryd( 4s)     0.00004       5.98073
 381    C 22  s      Ryd( 5s)     0.00002      16.74901
 382    C 22  px     Val( 2p)     1.08736      -0.10393
 383    C 22  px     Ryd( 3p)     0.00137       0.78051
 384    C 22  px     Ryd( 4p)     0.00010       1.50471
 385    C 22  py     Val( 2p)     1.15339      -0.12033
 386    C 22  py     Ryd( 3p)     0.00089       0.77403
 387    C 22  py     Ryd( 4p)     0.00030       1.60942
 388    C 22  pz     Val( 2p)     1.14333      -0.10569
 389    C 22  pz     Ryd( 3p)     0.00206       0.88537
 390    C 22  pz     Ryd( 4p)     0.00011       1.48522
 391    C 22  dxy    Ryd( 3d)     0.00164       1.94242
 392    C 22  dxy    Ryd( 4d)     0.00005       3.57156
 393    C 22  dxz    Ryd( 3d)     0.00114       2.03381
 394    C 22  dxz    Ryd( 4d)     0.00011       3.65335
 395    C 22  dyz    Ryd( 3d)     0.00050       1.76664
 396    C 22  dyz    Ryd( 4d)     0.00010       3.08989
 397    C 22  dx2y2  Ryd( 3d)     0.00041       1.70791
 398    C 22  dx2y2  Ryd( 4d)     0.00016       3.19413
 399    C 22  dz2    Ryd( 3d)     0.00153       1.83062
 400    C 22  dz2    Ryd( 4d)     0.00020       3.40543
 401    C 22  f(0)   Ryd( 4f)     0.00007       3.45467
 402    C 22  f(c1)  Ryd( 4f)     0.00058       3.71358
 403    C 22  f(s1)  Ryd( 4f)     0.00004       3.36689
 404    C 22  f(c2)  Ryd( 4f)     0.00005       3.40001
 405    C 22  f(s2)  Ryd( 4f)     0.00012       3.45371
 406    C 22  f(c3)  Ryd( 4f)     0.00013       3.55844
 407    C 22  f(s3)  Ryd( 4f)     0.00019       3.48753

 408    H 23  s      Val( 1s)     0.76876       0.00225
 409    H 23  s      Ryd( 2s)     0.00050       0.75579
 410    H 23  s      Ryd( 3s)     0.00003       1.84179
 411    H 23  px     Ryd( 2p)     0.00018       2.39299
 412    H 23  py     Ryd( 2p)     0.00078       2.77417
 413    H 23  pz     Ryd( 2p)     0.00011       2.27387

 414    H 24  s      Val( 1s)     0.77422       0.02186
 415    H 24  s      Ryd( 2s)     0.00156       0.54229
 416    H 24  s      Ryd( 3s)     0.00003       2.07605
 417    H 24  px     Ryd( 2p)     0.00021       2.46748
 418    H 24  py     Ryd( 2p)     0.00007       2.25535
 419    H 24  pz     Ryd( 2p)     0.00070       2.71683

 420    C 25  s      Cor( 1s)     1.99999     -10.26354
 421    C 25  s      Val( 2s)     0.95475      -0.17837
 422    C 25  s      Ryd( 3s)     0.01025       1.22373
 423    C 25  s      Ryd( 4s)     0.00009       1.76333
 424    C 25  s      Ryd( 5s)     0.00001      22.18089
 425    C 25  px     Val( 2p)     0.87978      -0.06160
 426    C 25  px     Ryd( 3p)     0.00392       1.01617
 427    C 25  px     Ryd( 4p)     0.00017       1.27029
 428    C 25  py     Val( 2p)     0.76675      -0.09308
 429    C 25  py     Ryd( 3p)     0.00216       0.99436
 430    C 25  py     Ryd( 4p)     0.00022       1.04804
 431    C 25  pz     Val( 2p)     0.91537      -0.01670
 432    C 25  pz     Ryd( 3p)     0.00949       1.18611
 433    C 25  pz     Ryd( 4p)     0.00025       1.19292
 434    C 25  dxy    Ryd( 3d)     0.00077       2.95610
 435    C 25  dxy    Ryd( 4d)     0.00020       2.33460
 436    C 25  dxz    Ryd( 3d)     0.00113       2.93279
 437    C 25  dxz    Ryd( 4d)     0.00040       2.38813
 438    C 25  dyz    Ryd( 3d)     0.00089       2.78672
 439    C 25  dyz    Ryd( 4d)     0.00024       2.16334
 440    C 25  dx2y2  Ryd( 3d)     0.00047       2.66966
 441    C 25  dx2y2  Ryd( 4d)     0.00004       2.10631
 442    C 25  dz2    Ryd( 3d)     0.00153       3.04565
 443    C 25  dz2    Ryd( 4d)     0.00051       2.41044
 444    C 25  f(0)   Ryd( 4f)     0.00013       3.53956
 445    C 25  f(c1)  Ryd( 4f)     0.00036       3.69653
 446    C 25  f(s1)  Ryd( 4f)     0.00016       3.39645
 447    C 25  f(c2)  Ryd( 4f)     0.00002       3.33214
 448    C 25  f(s2)  Ryd( 4f)     0.00009       3.44190
 449    C 25  f(c3)  Ryd( 4f)     0.00008       3.28816
 450    C 25  f(s3)  Ryd( 4f)     0.00022       3.27437

 451    H 26  s      Val( 1s)     0.90309      -0.02958
 452    H 26  s      Ryd( 2s)     0.00342       0.49083
 453    H 26  s      Ryd( 3s)     0.00015       2.20802
 454    H 26  px     Ryd( 2p)     0.00038       2.40078
 455    H 26  py     Ryd( 2p)     0.00017       2.18002
 456    H 26  pz     Ryd( 2p)     0.00075       2.68240

 457    O 27  s      Cor( 1s)     1.99999     -19.12073
 458    O 27  s      Val( 2s)     1.69893      -0.67967
 459    O 27  s      Ryd( 3s)     0.00051       1.65265
 460    O 27  s      Ryd( 4s)     0.00002       4.47006
 461    O 27  s      Ryd( 5s)     0.00000      41.77231
 462    O 27  px     Val( 2p)     1.68299      -0.26641
 463    O 27  px     Ryd( 3p)     0.00255       0.65691
 464    O 27  px     Ryd( 4p)     0.00006       3.19840
 465    O 27  py     Val( 2p)     1.49289      -0.25863
 466    O 27  py     Ryd( 3p)     0.00141       0.69985
 467    O 27  py     Ryd( 4p)     0.00002       3.11122
 468    O 27  pz     Val( 2p)     1.64234      -0.28111
 469    O 27  pz     Ryd( 3p)     0.00155       0.62183
 470    O 27  pz     Ryd( 4p)     0.00016       3.47752
 471    O 27  dxy    Ryd( 3d)     0.00112       1.69490
 472    O 27  dxy    Ryd( 4d)     0.00001       6.44221
 473    O 27  dxz    Ryd( 3d)     0.00580       1.96406
 474    O 27  dxz    Ryd( 4d)     0.00001       6.60840
 475    O 27  dyz    Ryd( 3d)     0.00446       1.85896
 476    O 27  dyz    Ryd( 4d)     0.00001       6.51899
 477    O 27  dx2y2  Ryd( 3d)     0.00115       1.67202
 478    O 27  dx2y2  Ryd( 4d)     0.00000       6.37097
 479    O 27  dz2    Ryd( 3d)     0.00630       2.09154
 480    O 27  dz2    Ryd( 4d)     0.00003       6.70674
 481    O 27  f(0)   Ryd( 4f)     0.00013       6.00458
 482    O 27  f(c1)  Ryd( 4f)     0.00011       5.92291
 483    O 27  f(s1)  Ryd( 4f)     0.00009       5.77402
 484    O 27  f(c2)  Ryd( 4f)     0.00009       5.59984
 485    O 27  f(s2)  Ryd( 4f)     0.00008       5.65101
 486    O 27  f(c3)  Ryd( 4f)     0.00000       5.27257
 487    O 27  f(s3)  Ryd( 4f)     0.00000       5.28957

 488    C 28  s      Cor( 1s)     1.99998     -10.21916
 489    C 28  s      Val( 2s)     0.88690      -0.10109
 490    C 28  s      Ryd( 3s)     0.00846       2.42220
 491    C 28  s      Ryd( 4s)     0.00004       5.10844
 492    C 28  s      Ryd( 5s)     0.00000      12.64994
 493    C 28  px     Val( 2p)     0.97154       0.09474
 494    C 28  px     Ryd( 3p)     0.01535       0.99825
 495    C 28  px     Ryd( 4p)     0.00050       2.51333
 496    C 28  py     Val( 2p)     0.91579      -0.08800
 497    C 28  py     Ryd( 3p)     0.00300       0.84838
 498    C 28  py     Ryd( 4p)     0.00007       1.22353
 499    C 28  pz     Val( 2p)     0.91535      -0.10092
 500    C 28  pz     Ryd( 3p)     0.00079       0.76435
 501    C 28  pz     Ryd( 4p)     0.00006       1.07914
 502    C 28  dxy    Ryd( 3d)     0.00070       3.55121
 503    C 28  dxy    Ryd( 4d)     0.00011       2.38033
 504    C 28  dxz    Ryd( 3d)     0.00080       3.40729
 505    C 28  dxz    Ryd( 4d)     0.00005       1.85822
 506    C 28  dyz    Ryd( 4d)     0.00006       2.93141
 507    C 28  dyz    Ryd( 3d)     0.00006       1.13016
 508    C 28  dx2y2  Ryd( 3d)     0.00070       3.65898
 509    C 28  dx2y2  Ryd( 4d)     0.00017       3.13549
 510    C 28  dz2    Ryd( 3d)     0.00024       3.19265
 511    C 28  dz2    Ryd( 4d)     0.00007       2.28583
 512    C 28  f(0)   Ryd( 4f)     0.00025       3.00912
 513    C 28  f(c1)  Ryd( 4f)     0.00038       3.36487
 514    C 28  f(s1)  Ryd( 4f)     0.00006       2.78453
 515    C 28  f(c2)  Ryd( 4f)     0.00031       3.21615
 516    C 28  f(s2)  Ryd( 4f)     0.00010       3.09970
 517    C 28  f(c3)  Ryd( 4f)     0.00064       3.58317
 518    C 28  f(s3)  Ryd( 4f)     0.00066       3.58534

 519    N 29  s      Cor( 1s)     1.99999     -14.31758
 520    N 29  s      Val( 2s)     1.58552      -0.37517
 521    N 29  s      Ryd( 3s)     0.00192       2.27136
 522    N 29  s      Ryd( 4s)     0.00002       2.50889
 523    N 29  s      Ryd( 5s)     0.00000      29.27564
 524    N 29  px     Val( 2p)     1.49208      -0.14609
 525    N 29  px     Ryd( 3p)     0.00197       0.53547
 526    N 29  px     Ryd( 4p)     0.00009       4.49804
 527    N 29  py     Val( 2p)     1.11032      -0.14942
 528    N 29  py     Ryd( 3p)     0.00035       0.60345
 529    N 29  py     Ryd( 4p)     0.00001       2.71867
 530    N 29  pz     Val( 2p)     1.10673      -0.15123
 531    N 29  pz     Ryd( 3p)     0.00059       0.59126
 532    N 29  pz     Ryd( 4p)     0.00000       2.51546
 533    N 29  dxy    Ryd( 3d)     0.00567       1.69829
 534    N 29  dxy    Ryd( 4d)     0.00001       5.07604
 535    N 29  dxz    Ryd( 3d)     0.00481       1.55130
 536    N 29  dxz    Ryd( 4d)     0.00001       4.95926
 537    N 29  dyz    Ryd( 3d)     0.00034       1.34425
 538    N 29  dyz    Ryd( 4d)     0.00000       4.37541
 539    N 29  dx2y2  Ryd( 3d)     0.00744       1.97146
 540    N 29  dx2y2  Ryd( 4d)     0.00001       5.09917
 541    N 29  dz2    Ryd( 3d)     0.00270       1.60338
 542    N 29  dz2    Ryd( 4d)     0.00000       4.59817
 543    N 29  f(0)   Ryd( 4f)     0.00010       4.25445
 544    N 29  f(c1)  Ryd( 4f)     0.00009       4.75725
 545    N 29  f(s1)  Ryd( 4f)     0.00002       4.04852
 546    N 29  f(c2)  Ryd( 4f)     0.00013       4.44434
 547    N 29  f(s2)  Ryd( 4f)     0.00004       4.39776
 548    N 29  f(c3)  Ryd( 4f)     0.00018       4.89986
 549    N 29  f(s3)  Ryd( 4f)     0.00018       4.86934

     Population inversion found on atom  C  6
     Population inversion found on atom  N 10
     Population inversion found on atom  C 25
     Population inversion found on atom  C 28


 Summary of Natural Population Analysis:

                                     Natural Population
             Natural    ---------------------------------------------
[...]
  203.  0.00014     2.12303  257.   RY ( 2) H  9
  204.  0.00014     2.10400  247.   RY ( 2) H  7
  205.  0.00014     1.56339  333.   RY ( 6) C 15
  206.  0.00013     1.81578  122.   RY ( 7) C  2
  207.  0.00013     2.51147  174.   RY ( 7) C  4
  208.  0.00013     2.57774   99.   RY (10) C  1
  209.  0.00013     2.08936  252.   RY ( 2) H  8
  210.  0.00012     2.28640  376.   RY ( 8) C 19
  211.  0.00012     2.37831  396.   RY ( 2) H 20
  212.  0.00012     1.46236  377.   RY ( 9) C 19
  213.  0.00012     2.97245  151.   RY (10) C  3
  214.  0.00012     1.30716  201.   RY ( 8) C  5
  215.  0.00012     2.21691  230.   RY (11) C  6
  216.  0.00012     1.49656  293.   RY ( 7) C 11
  217.  0.00011     2.29089  469.   RY ( 3) H 26
  218.  0.00011     1.93265  100.   RY (11) C  1
  219.  0.00011     2.34223  231.   RY (12) C  6
  220.  0.00011     2.21463  355.   RY ( 2) H 16
  221.  0.00011     2.40449  401.   RY ( 2) H 21
  222.  0.00011     2.37927  432.   RY ( 2) H 23
  223.  0.00010     3.27693  269.   RY ( 9) N 10
  224.  0.00010     2.47474  123.   RY ( 8) C  2
  225.  0.00010     2.18374  314.   RY ( 2) H 12
  226.  0.00010     2.09074  319.   RY ( 2) H 13
  227.  0.00009     2.55945  152.   RY (11) C  3
  228.  0.00009     1.93143  253.   RY ( 3) H  8
  229.  0.00009     3.17495  270.   RY (10) N 10
  230.  0.00009     2.09309  324.   RY ( 2) H 14
  231.  0.00009     2.16774  360.   RY ( 2) H 17
  232.  0.00009     1.86937  258.   RY ( 3) H  9
  233.  0.00009     2.29644  397.   RY ( 3) H 20
  234.  0.00009     2.27029  433.   RY ( 3) H 23
  235.  0.00009     1.79247  248.   RY ( 3) H  7
  236.  0.00009     1.32468  503.   RY ( 6) C 28
  237.  0.00008     2.79898  124.   RY ( 9) C  2
  238.  0.00008     2.22993  475.   RY ( 4) O 27
  239.  0.00008     2.35581  378.   RY (10) C 19
  240.  0.00008     2.36680  402.   RY ( 3) H 21
  241.  0.00008     2.35753  437.   RY ( 2) H 24
  242.  0.00008     3.13043  101.   RY (12) C  1
  243.  0.00008     1.60684  334.   RY ( 7) C 15
  244.  0.00008     2.19605  365.   RY ( 2) H 18
  245.  0.00008     3.55507  413.   RY ( 9) C 22
  246.  0.00007     2.87176  202.   RY ( 9) C  5
  247.  0.00007     2.67909  448.   RY ( 8) C 25
  248.  0.00007     2.12511  315.   RY ( 3) H 12
  249.  0.00007     2.15142  325.   RY ( 3) H 14
  250.  0.00007     1.63001  504.   RY ( 7) C 28
  251.  0.00007     0.85113  526.   RY ( 3) N 29
  252.  0.00007     2.12558  356.   RY ( 3) H 16
  253.  0.00007     2.80864  271.   RY (11) N 10
  254.  0.00006     2.27296  125.   RY (10) C  2
  255.  0.00006     1.50344  175.   RY ( 8) C  4
  256.  0.00006     2.29419  505.   RY ( 8) C 28
  257.  0.00006     2.55579  259.   RY ( 4) H  9
  258.  0.00006     2.10869  320.   RY ( 3) H 13
  259.  0.00006     2.09420  361.   RY ( 3) H 17
  260.  0.00006     2.54895  249.   RY ( 4) H  7
  261.  0.00006     3.54892  126.   RY (11) C  2
  262.  0.00005     1.80103  176.   RY ( 9) C  4
  263.  0.00005     2.54289  379.   RY (11) C 19
  264.  0.00005     2.09129  366.   RY ( 3) H 18
  265.  0.00005     2.32870  438.   RY ( 3) H 24
  266.  0.00005     2.24597  357.   RY ( 4) H 16
  267.  0.00005     2.08856  470.   RY ( 4) H 26
  268.  0.00005     2.58041  102.   RY (13) C  1
  269.  0.00005     2.49407  254.   RY ( 4) H  8
  270.  0.00005     1.59614  335.   RY ( 8) C 15
  271.  0.00005     2.07489  362.   RY ( 4) H 17
  272.  0.00005     2.31034  398.   RY ( 4) H 20
  273.  0.00005     2.57213  414.   RY (10) C 22
  274.  0.00005     3.54894  232.   RY (13) C  6
  275.  0.00005     2.83852  103.   RY (14) C  1
  276.  0.00005     1.62686  294.   RY ( 8) C 11
  277.  0.00005     2.18643  321.   RY ( 4) H 13
  278.  0.00005     2.28348  449.   RY ( 9) C 25
  279.  0.00004     3.54665  177.   RY (10) C  4
  280.  0.00004     2.18442  233.   RY (14) C  6
  281.  0.00004     2.16784  316.   RY ( 4) H 12
  282.  0.00004     2.89340  272.   RY (12) N 10
  283.  0.00004     2.25966  326.   RY ( 4) H 14
  284.  0.00004     1.91509  476.   RY ( 5) O 27
  285.  0.00004     2.30113  203.   RY (10) C  5
  286.  0.00004     2.24944  403.   RY ( 4) H 21
  287.  0.00004     2.13527  127.   RY (12) C  2
  288.  0.00004     3.70973  234.   RY (15) C  6
  289.  0.00004     2.34946  439.   RY ( 4) H 24
  290.  0.00003     1.89914  415.   RY (11) C 22
  291.  0.00003     2.18713  450.   RY (10) C 25
  292.  0.00003     2.21461  367.   RY ( 4) H 18
  293.  0.00003     1.80690  204.   RY (11) C  5
  294.  0.00003     2.10534  380.   RY (12) C 19
  295.  0.00003     1.78519  295.   RY ( 9) C 11
  296.  0.00003     2.28714  434.   RY ( 4) H 23
  297.  0.00002     3.87807  273.   RY (13) N 10
  298.  0.00002     3.28256  153.   RY (12) C  3
  299.  0.00002     2.96330  235.   RY (16) C  6
  300.  0.00002     2.28564  296.   RY (10) C 11
  301.  0.00002     3.16288  381.   RY (13) C 19
  302.  0.00002     2.29690  416.   RY (12) C 22
  303.  0.00002     4.33464  274.   RY (14) N 10
  304.  0.00002     3.11936  336.   RY ( 9) C 15
  305.  0.00002     2.15588  451.   RY (11) C 25
  306.  0.00002     3.14156  506.   RY ( 9) C 28
  307.  0.00002     2.72974  104.   RY (15) C  1
  308.  0.00002     1.00681  477.   RY ( 6) O 27
  309.  0.00002     2.89792  178.   RY (11) C  4
  310.  0.00002     2.38626  205.   RY (12) C  5
  311.  0.00002     3.63608  236.   RY (17) C  6
  312.  0.00002     1.38740  337.   RY (10) C 15
  313.  0.00002     3.80265  105.   RY (16) C  1
  314.  0.00002     2.08203  128.   RY (13) C  2
  315.  0.00002     2.38793  179.   RY (12) C  4
  316.  0.00002     2.46809  297.   RY (11) C 11
  317.  0.00002     2.55795  382.   RY (14) C 19
  318.  0.00002     2.63838  399.   RY ( 5) H 20
  319.  0.00002     2.87418  471.   RY ( 5) H 26
  320.  0.00002     3.18504  507.   RY (10) C 28
  321.  0.00002     1.46376  527.   RY ( 4) N 29
  322.  0.00001     3.37780  129.   RY (14) C  2
  323.  0.00001     2.56576  206.   RY (13) C  5
  324.  0.00001     2.42798  298.   RY (12) C 11
  325.  0.00001     2.40107  338.   RY (11) C 15
  326.  0.00001     2.76563  106.   RY (17) C  1
  327.  0.00001     3.98765  154.   RY (13) C  3
  328.  0.00001     3.14392  130.   RY (15) C  2
  329.  0.00001     3.88546  207.   RY (14) C  5
  330.  0.00001     2.89484  250.   RY ( 5) H  7
  331.  0.00001     2.89153  260.   RY ( 5) H  9
  332.  0.00001     3.14302  107.   RY (18) C  1
  333.  0.00001     2.96384  155.   RY (14) C  3
  334.  0.00001     2.52817  180.   RY (13) C  4
  335.  0.00001     3.53690  237.   RY (18) C  6
  336.  0.00001     4.11596  275.   RY (15) N 10
  337.  0.00001     3.42127  417.   RY (13) C 22
  338.  0.00001     2.00016  452.   RY (12) C 25
  339.  0.00001     1.93830  478.   RY ( 7) O 27
  340.  0.00001     2.92192  255.   RY ( 5) H  8
  341.  0.00001     4.91909  276.   RY (16) N 10
  342.  0.00001     2.64700  322.   RY ( 5) H 13
  343.  0.00001     3.34081  108.   RY (19) C  1
  344.  0.00000     2.84615  109.   RY (20) C  1
  345.  0.00000     3.43617  131.   RY (16) C  2
  346.  0.00000     3.33820  132.   RY (17) C  2
  347.  0.00001     4.28776  156.   RY (15) C  3
  348.  0.00001     2.89544  181.   RY (14) C  4
  349.  0.00001     2.88226  208.   RY (15) C  5
  350.  0.00001     3.38656  238.   RY (19) C  6
  351.  0.00001     2.21099  299.   RY (13) C 11
  352.  0.00001     2.56650  368.   RY ( 5) H 18
  353.  0.00001     3.10649  383.   RY (15) C 19
  354.  0.00001     3.01469  384.   RY (16) C 19
  355.  0.00001     2.47858  440.   RY ( 5) H 24
  356.  0.00001     2.15999  453.   RY (13) C 25
  357.  0.00001     3.79536  508.   RY (11) C 28
  358.  0.00001     1.28716  528.   RY ( 5) N 29
  359.  0.00000     2.18036  157.   RY (16) C  3
  360.  0.00000     3.64709  239.   RY (20) C  6
  361.  0.00000     5.35728  277.   RY (17) N 10
  362.  0.00000     3.49371  110.   RY (21) C  1
  363.  0.00000    13.35089  111.   RY (22) C  1
  364.  0.00000     8.43286  112.   RY (23) C  1
  365.  0.00000     3.11904  113.   RY (24) C  1
  366.  0.00000     2.69567  133.   RY (18) C  2
  367.  0.00000     3.44028  158.   RY (17) C  3
  368.  0.00000     3.10463  182.   RY (15) C  4
  369.  0.00000     3.35148  114.   RY (25) C  1
  370.  0.00000     3.70781  115.   RY (26) C  1
  371.  0.00000     5.80009  134.   RY (19) C  2
  372.  0.00000     4.25292  135.   RY (20) C  2
  373.  0.00000     4.74479  136.   RY (21) C  2
  374.  0.00000     4.80918  137.   RY (22) C  2
  375.  0.00000     3.10546  138.   RY (23) C  2
  376.  0.00000     3.01942  139.   RY (24) C  2
  377.  0.00000     8.89526  140.   RY (25) C  2
  378.  0.00000     3.67961  141.   RY (26) C  2
  379.  0.00000     7.07115  159.   RY (18) C  3
  380.  0.00000     2.78370  160.   RY (19) C  3
  381.  0.00000     2.77098  183.   RY (16) C  4
  382.  0.00000     2.31757  209.   RY (16) C  5
  383.  0.00000     4.08350  210.   RY (17) C  5
  384.  0.00000     4.18727  278.   RY (18) N 10
  385.  0.00000     2.68745  300.   RY (14) C 11
  386.  0.00000     2.59647  317.   RY ( 5) H 12
  387.  0.00000     2.72999  327.   RY ( 5) H 14
  388.  0.00000     3.43001  161.   RY (20) C  3
  389.  0.00000     4.43090  162.   RY (21) C  3
  390.  0.00000     5.78586  163.   RY (22) C  3
  391.  0.00000     6.76851  164.   RY (23) C  3
  392.  0.00000     3.43319  165.   RY (24) C  3
  393.  0.00000     3.70024  166.   RY (25) C  3
  394.  0.00000     3.29704  167.   RY (26) C  3
  395.  0.00000     4.26503  184.   RY (17) C  4
  396.  0.00000     2.69397  185.   RY (18) C  4
  397.  0.00000     2.93123  186.   RY (19) C  4
  398.  0.00000    10.83492  187.   RY (20) C  4
  399.  0.00000     2.74442  188.   RY (21) C  4
  400.  0.00000     4.36349  189.   RY (22) C  4
  401.  0.00000     4.02060  190.   RY (23) C  4
  402.  0.00000     4.11764  211.   RY (18) C  5
  403.  0.00000     3.18794  191.   RY (24) C  4
  404.  0.00000     3.68589  192.   RY (25) C  4
  405.  0.00000     7.88357  193.   RY (26) C  4
  406.  0.00000    13.56380  212.   RY (19) C  5
  407.  0.00000     3.47245  213.   RY (20) C  5
  408.  0.00000     4.32713  214.   RY (21) C  5
  409.  0.00000     3.12509  215.   RY (22) C  5
  410.  0.00000     6.38090  216.   RY (23) C  5
  411.  0.00000     3.29554  217.   RY (24) C  5
  412.  0.00000     2.35913  218.   RY (25) C  5
  413.  0.00000     3.29562  219.   RY (26) C  5
  414.  0.00000     3.43911  240.   RY (21) C  6
  415.  0.00000     3.25866  241.   RY (22) C  6
  416.  0.00000     3.33792  242.   RY (23) C  6
  417.  0.00000     4.61141  279.   RY (19) N 10
  418.  0.00000     2.85588  339.   RY (12) C 15
  419.  0.00000     1.92358  340.   RY (13) C 15
  420.  0.00000     2.53851  358.   RY ( 5) H 16
  421.  0.00000     2.51416  363.   RY ( 5) H 17
  422.  0.00000     2.42296  385.   RY (17) C 19
  423.  0.00001     2.37456  404.   RY ( 5) H 21
  424.  0.00001     2.47457  418.   RY (14) C 22
  425.  0.00001     2.32676  435.   RY ( 5) H 23
  426.  0.00001     2.42787  454.   RY (14) C 25
  427.  0.00001     2.93932  479.   RY ( 8) O 27
  428.  0.00001     4.14278  509.   RY (12) C 28
  429.  0.00001     2.83794  529.   RY ( 6) N 29
  430.  0.00000    16.06307  243.   RY (24) C  6
  431.  0.00000     3.68020  244.   RY (25) C  6
  432.  0.00000     6.60395  245.   RY (26) C  6
  433.  0.00000     4.82759  280.   RY (20) N 10
  434.  0.00000     2.27875  301.   RY (15) C 11
  435.  0.00000     2.26792  341.   RY (14) C 15
  436.  0.00000    14.92282  281.   RY (21) N 10
  437.  0.00000     6.14470  282.   RY (22) N 10
  438.  0.00000     4.75123  283.   RY (23) N 10
  439.  0.00000    12.75699  284.   RY (24) N 10
  440.  0.00000     4.49384  285.   RY (25) N 10
  441.  0.00000     4.62722  286.   RY (26) N 10
  442.  0.00000     2.56352  302.   RY (16) C 11
  443.  0.00000     3.23698  303.   RY (17) C 11
  444.  0.00000     3.86347  304.   RY (18) C 11
  445.  0.00000     3.31421  305.   RY (19) C 11
  446.  0.00000    18.08008  306.   RY (20) C 11
  447.  0.00000     3.95857  307.   RY (21) C 11
  448.  0.00000     3.14646  308.   RY (22) C 11
  449.  0.00000     4.86356  309.   RY (23) C 11
  450.  0.00000     3.49306  310.   RY (24) C 11
  451.  0.00000     2.93031  342.   RY (15) C 15
  452.  0.00000     2.71902  343.   RY (16) C 15
  453.  0.00000     3.61666  386.   RY (18) C 19
  454.  0.00000     2.91384  387.   RY (19) C 19
  455.  0.00000     4.62493  311.   RY (25) C 11
  456.  0.00000     3.01846  312.   RY (26) C 11
  457.  0.00000     4.42997  344.   RY (17) C 15
  458.  0.00000    17.67691  345.   RY (18) C 15
  459.  0.00000     3.99377  346.   RY (19) C 15
  460.  0.00000     4.81427  347.   RY (20) C 15
  461.  0.00000     3.37289  348.   RY (21) C 15
  462.  0.00000     3.06526  349.   RY (22) C 15
  463.  0.00000     2.55418  350.   RY (23) C 15
  464.  0.00000     2.67728  388.   RY (20) C 19
  465.  0.00000     4.51099  419.   RY (15) C 22
  466.  0.00000     2.84812  420.   RY (16) C 22
  467.  0.00000     2.39573  455.   RY (15) C 25
  468.  0.00000     2.51427  456.   RY (16) C 25
  469.  0.00000     3.11157  480.   RY ( 9) O 27
  470.  0.00000     3.04704  510.   RY (13) C 28
  471.  0.00000     3.27549  351.   RY (24) C 15
  472.  0.00000     3.24266  352.   RY (25) C 15
  473.  0.00000     3.58724  353.   RY (26) C 15
  474.  0.00000     3.63551  389.   RY (21) C 19
  475.  0.00000    19.49760  390.   RY (22) C 19
  476.  0.00000     4.04578  391.   RY (23) C 19
  477.  0.00000     3.25307  392.   RY (24) C 19
  478.  0.00000     3.53538  393.   RY (25) C 19
  479.  0.00000     3.71699  394.   RY (26) C 19
  480.  0.00000     3.34296  421.   RY (17) C 22
  481.  0.00000     3.13747  422.   RY (18) C 22
  482.  0.00000     3.32872  423.   RY (19) C 22
  483.  0.00000     4.19116  424.   RY (20) C 22
  484.  0.00000    13.08886  425.   RY (21) C 22
  485.  0.00000     3.52276  426.   RY (22) C 22
  486.  0.00000     3.37905  427.   RY (23) C 22
  487.  0.00000     3.98134  428.   RY (24) C 22
  488.  0.00000     3.21578  429.   RY (25) C 22
  489.  0.00000     3.17576  430.   RY (26) C 22
  490.  0.00000     2.42801  457.   RY (17) C 25
  491.  0.00000     3.11049  458.   RY (18) C 25
  492.  0.00000     2.69445  459.   RY (19) C 25
  493.  0.00000     3.64441  481.   RY (10) O 27
  494.  0.00000     3.97009  511.   RY (14) C 28
  495.  0.00000     2.36651  530.   RY ( 7) N 29
  496.  0.00000     3.21166  460.   RY (20) C 25
  497.  0.00000    16.65928  461.   RY (21) C 25
  498.  0.00000     5.06131  462.   RY (22) C 25
  499.  0.00000     4.20221  463.   RY (23) C 25
  500.  0.00000     4.76473  464.   RY (24) C 25
  501.  0.00000     3.40630  465.   RY (25) C 25
  502.  0.00000     3.02355  466.   RY (26) C 25
  503.  0.00000     3.25297  482.   RY (11) O 27
  504.  0.00000     3.40768  483.   RY (12) O 27
  505.  0.00000     3.22255  484.   RY (13) O 27
  506.  0.00000     2.70646  512.   RY (15) C 28
  507.  0.00000     6.53976  485.   RY (14) O 27
  508.  0.00000     7.76165  486.   RY (15) O 27
  509.  0.00000    10.50778  487.   RY (16) O 27
  510.  0.00000     6.79779  488.   RY (17) O 27
  511.  0.00000    15.38051  489.   RY (18) O 27
  512.  0.00000     7.29789  490.   RY (19) O 27
  513.  0.00000     5.88212  491.   RY (20) O 27
  514.  0.00000     7.71618  492.   RY (21) O 27
  515.  0.00000     9.71385  493.   RY (22) O 27
  516.  0.00000    11.51310  494.   RY (23) O 27
  517.  0.00000     5.84617  495.   RY (24) O 27
  518.  0.00000     6.26609  496.   RY (25) O 27
  519.  0.00000    10.00359  497.   RY (26) O 27
  520.  0.00000     2.62519  513.   RY (16) C 28
  521.  0.00000     2.92892  514.   RY (17) C 28
  522.  0.00000     3.00793  515.   RY (18) C 28
  523.  0.00000     2.86677  516.   RY (19) C 28
  524.  0.00000     9.32775  517.   RY (20) C 28
  525.  0.00000     3.45654  531.   RY ( 8) N 29
  526.  0.00000     1.45066  532.   RY ( 9) N 29
  527.  0.00000     3.50375  533.   RY (10) N 29
  528.  0.00000     3.43784  518.   RY (21) C 28
  529.  0.00000     2.90855  519.   RY (22) C 28
  530.  0.00000     2.69187  520.   RY (23) C 28
  531.  0.00000     2.58046  521.   RY (24) C 28
  532.  0.00000     3.03807  522.   RY (25) C 28
  533.  0.00000     3.17584  523.   RY (26) C 28
  534.  0.00000    18.03006  534.   RY (11) N 29
  535.  0.00000     3.96163  535.   RY (12) N 29
  536.  0.00000     3.83672  536.   RY (13) N 29
  537.  0.00000     4.89950  537.   RY (14) N 29
  538.  0.00000     2.74964  538.   RY (15) N 29
  539.  0.00000     4.63278  539.   RY (16) N 29
  540.  0.00000     4.76698  540.   RY (17) N 29
  541.  0.00000     5.01295  541.   RY (18) N 29
  542.  0.00000     4.57616  542.   RY (19) N 29
  543.  0.00000     4.05709  543.   RY (20) N 29
  544.  0.00000     4.32671  544.   RY (21) N 29
  545.  0.00000     3.94445  545.   RY (22) N 29
  546.  0.00000     4.87757  546.   RY (23) N 29
  547.  0.00000     4.30896  547.   RY (24) N 29
  548.  0.00000     7.68186  548.   RY (25) N 29
  549.  0.00000     7.32761  549.   RY (26) N 29

 Maximum scratch memory used by NBO was 2678058 words
 Maximum scratch memory used by G09NBO was 1965706 words

 Read Unf file /scratch/aloke/Gau-18235.EUF:
 Label Gaussian matrix elements                                         IVers= 1 NLab= 2 Version=AM64L-G09RevD.01
 Title Energy Optimisation and Frequency calculation                   
 NAtoms=    29 NBasis=   549 NBsUse=   549 ICharg=     0 Multip=     1 NE=   108 Len12L=8 Len4L=8
 Label GAUSSIAN SCALARS                                                 NI= 1 NR= 1 NTot=       1 LenBuf=    2000 N=    1000       1       1       1       1
 Label ALPHA ORBITAL ENERGIES                                           NI= 0 NR= 1 NTot=     549 LenBuf=    4000 N=     549       0       0       0       0
 Label ALPHA MO COEFFICIENTS                                            NI= 0 NR= 1 NTot=  301401 LenBuf=    4000 N=     549     549       0       0       0
 Store file  524 Len=  301401.
 Label NPA CHARGES                                                      NI= 0 NR= 1 NTot=      29 LenBuf=    4000 N=      29       0       0       0       0
 Recovered energy= -650.669600603     dipole=      0.000000000000      0.000000000000      0.000000000000
 1\1\GINC-CN004\SP\RB3LYP\def2TZVP\C12H14N2O1\ALOKE\28-Oct-2021\0\\# b3
 lyp/def2tzvp empiricaldispersion=gd3 pop=nbo6read pop=saveNBOs int=(gr
 id=ultrafine) scf=(tight,maxcycle=300)\\Energy Optimisation and Freque
 ncy calculation\\0,1\C,0,-0.803143,-0.849642,0.381667\C,0,-2.0598,-1.4
 13105,0.16624\C,0,-3.117455,-0.666342,-0.339884\C,0,-2.9233,0.673714,-
 0.644571\C,0,-1.68299,1.259263,-0.421275\C,0,-0.623262,0.515306,0.0986
 02\H,0,-2.205166,-2.465952,0.379562\H,0,-3.73423,1.266782,-1.048442\H,
 0,-1.539212,2.306641,-0.650345\N,0,0.658795,1.094598,0.338956\C,0,1.10
 5212,2.100387,-0.612735\H,0,0.612389,3.074474,-0.479929\H,0,2.180284,2
 .241454,-0.49422\H,0,0.93,1.746817,-1.627016\C,0,0.878921,1.503947,1.7
 21952\H,0,0.559836,0.719757,2.406494\H,0,1.942702,1.691915,1.882525\H,
 0,0.323435,2.419846,1.974663\C,0,0.346179,-1.722333,0.826405\H,0,0.807
 71,-1.340795,1.741747\H,0,-0.04946,-2.707332,1.078059\C,0,1.440911,-1.
 885685,-0.246084\H,0,2.015649,-2.793324,-0.020321\H,0,1.014576,-2.0112
 45,-1.24233\C,0,2.462941,-0.775881,-0.285349\H,0,2.828833,-0.457539,0.
 714208\O,0,2.954488,-0.332339,-1.293892\C,0,-4.48693665,-1.32986208,-0
 .57623356\N,0,-5.50657799,-1.82388294,-0.75220655\\Version=AM64L-G09Re
 vD.01\State=1-A\HF=-650.6696006\RMSD=4.892e-09\Dipole=1.1999137,0.7696
 129,1.1967819\Quadrupole=-18.6006301,12.6100489,5.9905812,-9.0914504,4
 .4054442,-2.474918\PG=C01 [X(C12H14N2O1)]\\@


 GOOD SENSE ABOUT TRIVIALITIES IS BETTER THAN NONSENSE
 ABOUT THINGS THAT MATTER

                                       -- MAX BEERBOHM
 Job cpu time:       0 days  1 hours  1 minutes 42.6 seconds.
 File lengths (MBytes):  RWF=    118 Int=      0 D2E=      0 Chk=     12 Scr=      1
 Normal termination of Gaussian 09 at Thu Oct 28 14:38:06 2021.
