 Entering Gaussian System, Link 0=g09
 Initial command:
 /home/apps/iiser/g09/g09/l1.exe "/scratch/aloke/Gau-22500.inp" -scrdir="/scratch/aloke/"
 Entering Link 1 = /home/apps/iiser/g09/g09/l1.exe PID=     22501.
  
 Copyright (c) 1988,1990,1992,1993,1995,1998,2003,2009,2013,
            Gaussian, Inc.  All Rights Reserved.
  
 This is part of the Gaussian(R) 09 program.  It is based on
 the Gaussian(R) 03 system (copyright 2003, Gaussian, Inc.),
 the Gaussian(R) 98 system (copyright 1998, Gaussian, Inc.),
 the Gaussian(R) 94 system (copyright 1995, Gaussian, Inc.),
 the Gaussian 92(TM) system (copyright 1992, Gaussian, Inc.),
 the Gaussian 90(TM) system (copyright 1990, Gaussian, Inc.),
 the Gaussian 88(TM) system (copyright 1988, Gaussian, Inc.),
 the Gaussian 86(TM) system (copyright 1986, Carnegie Mellon
 University), and the Gaussian 82(TM) system (copyright 1983,
 Carnegie Mellon University). Gaussian is a federally registered
 trademark of Gaussian, Inc.
  
 This software contains proprietary and confidential information,
 including trade secrets, belonging to Gaussian, Inc.
  
 This software is provided under written license and may be
 used, copied, transmitted, or stored only in accord with that
 written license.
  
 The following legend is applicable only to US Government
 contracts under FAR:
  
                    RESTRICTED RIGHTS LEGEND
  
 Use, reproduction and disclosure by the US Government is
 subject to restrictions as set forth in subparagraphs (a)
 and (c) of the Commercial Computer Software - Restricted
 Rights clause in FAR 52.227-19.
  
 Gaussian, Inc.
 340 Quinnipiac St., Bldg. 40, Wallingford CT 06492
  
  
 ---------------------------------------------------------------
 Warning -- This program may not be used in any manner that
 competes with the business of Gaussian, Inc. or will provide
 assistance to any competitor of Gaussian, Inc.  The licensee
 of this program is prohibited from giving any competitor of
 Gaussian, Inc. access to this program.  By using this program,
 the user acknowledges that Gaussian, Inc. is engaged in the
 business of creating and licensing software in the field of
 computational chemistry and represents and warrants to the
 licensee that it is not a competitor of Gaussian, Inc. and that
 it will not use this program in any manner prohibited above.
 ---------------------------------------------------------------
  

 Cite this work as:
 Gaussian 09, Revision D.01,
 M. J. Frisch, G. W. Trucks, H. B. Schlegel, G. E. Scuseria, 
 M. A. Robb, J. R. Cheeseman, G. Scalmani, V. Barone, B. Mennucci, 
 G. A. Petersson, H. Nakatsuji, M. Caricato, X. Li, H. P. Hratchian, 
 A. F. Izmaylov, J. Bloino, G. Zheng, J. L. Sonnenberg, M. Hada, 
 M. Ehara, K. Toyota, R. Fukuda, J. Hasegawa, M. Ishida, T. Nakajima, 
 Y. Honda, O. Kitao, H. Nakai, T. Vreven, J. A. Montgomery, Jr., 
 J. E. Peralta, F. Ogliaro, M. Bearpark, J. J. Heyd, E. Brothers, 
 K. N. Kudin, V. N. Staroverov, T. Keith, R. Kobayashi, J. Normand, 
 K. Raghavachari, A. Rendell, J. C. Burant, S. S. Iyengar, J. Tomasi, 
 M. Cossi, N. Rega, J. M. Millam, M. Klene, J. E. Knox, J. B. Cross, 
 V. Bakken, C. Adamo, J. Jaramillo, R. Gomperts, R. E. Stratmann, 
 O. Yazyev, A. J. Austin, R. Cammi, C. Pomelli, J. W. Ochterski, 
 R. L. Martin, K. Morokuma, V. G. Zakrzewski, G. A. Voth, 
 P. Salvador, J. J. Dannenberg, S. Dapprich, A. D. Daniels, 
 O. Farkas, J. B. Foresman, J. V. Ortiz, J. Cioslowski, 
 and D. J. Fox, Gaussian, Inc., Wallingford CT, 2013.
 
 ******************************************
 Gaussian 09:  AM64L-G09RevD.01 24-Apr-2013
                28-Oct-2021 
 ******************************************
 %LindaWorkers=cn087
 %chk=cyano_mod_bp34_n.chk
 %mem=128GB
 %nprocshared=48
 Will use up to   48 processors via shared memory.
 SetLPE:  input flags=" -opt "Tsnet.Node.lindarsharg: ssh" "
 SetLPE:    new flags=" -opt "Tsnet.Node.lindarsharg: ssh"  -nodelist 'cn087'"
 Will use up to    1 processors via Linda.
 ----------------------------------------------------------------------
 # b3lyp/def2tzvp empiricaldispersion=gd3 pop=nbo6read pop=saveNBOs int
 =(grid=ultrafine) scf=(tight,maxcycle=300)
 ----------------------------------------------------------------------
 1/38=1,163=2/1;
 2/12=2,17=6,18=5,40=1/2;
 3/5=44,7=101,11=2,16=1,25=1,30=1,74=-5,75=-5,124=31/1,2,3;
 4//1;
 5/5=2,7=300,32=2,38=5/2;
 6/7=2,8=2,9=2,10=2,28=1,40=2,73=1,113=1,114=1,124=2103/1,12;
 99/5=1,9=1/99;
 ---------------------------------------------
 Energy Optimisation and Frequency calculation
 ---------------------------------------------
 Symbolic Z-matrix:
 Charge =  0 Multiplicity = 1
 C                    -0.74328  -0.89904   0.24877 
 C                    -1.9959   -1.51109   0.23758 
 C                    -3.16315  -0.79456   0.00008 
 C                    -3.08691   0.56931  -0.24177 
 C                    -1.8518    1.20551  -0.21902 
 C                    -0.67888   0.49224   0.03666 
 H                    -2.05324  -2.58178   0.39656 
 H                    -3.984     1.14287  -0.43868 
 H                    -1.80336   2.27202  -0.39143 
 N                     0.59348   1.13347   0.07333 
 C                     0.76464   2.30031  -0.77724 
 H                     0.25937   3.19956  -0.39448 
 H                     1.83015   2.52697  -0.84687 
 H                     0.38822   2.0902   -1.77803 
 C                     1.11103   1.36827   1.42107 
 H                     0.61195   2.22527   1.89578 
 H                     2.18373   1.5557    1.37281 
 H                     0.95337   0.4936    2.04638 
 C                     0.4966   -1.74848   0.39568 
 H                     0.1828   -2.7858    0.516 
 H                     1.0685   -1.49672   1.29142 
 C                     1.45432  -1.64716  -0.81312 
 H                     2.01047  -2.58591  -0.90558 
 H                     0.89298  -1.50634  -1.73841 
 C                     2.50067  -0.56419  -0.66624 
 H                     2.61891   0.12091  -1.52833 
 O                     3.24512  -0.49118   0.28309 
 C                    -4.52328  -1.51668  -0.01417 
 N                    -5.53596  -2.05432  -0.02478 
 
                          Input orientation:                          
 ---------------------------------------------------------------------
 Center     Atomic      Atomic             Coordinates (Angstroms)
 Number     Number       Type             X           Y           Z
 ---------------------------------------------------------------------
      1          6           0       -0.743277   -0.899037    0.248774
      2          6           0       -1.995895   -1.511092    0.237584
      3          6           0       -3.163154   -0.794562    0.000084
      4          6           0       -3.086911    0.569307   -0.241770
      5          6           0       -1.851799    1.205508   -0.219021
      6          6           0       -0.678880    0.492236    0.036655
      7          1           0       -2.053241   -2.581777    0.396562
      8          1           0       -3.983995    1.142870   -0.438678
      9          1           0       -1.803359    2.272020   -0.391428
     10          7           0        0.593484    1.133471    0.073330
     11          6           0        0.764637    2.300310   -0.777240
     12          1           0        0.259367    3.199559   -0.394483
     13          1           0        1.830150    2.526965   -0.846869
     14          1           0        0.388223    2.090198   -1.778033
     15          6           0        1.111030    1.368271    1.421071
     16          1           0        0.611945    2.225266    1.895775
     17          1           0        2.183733    1.555695    1.372805
     18          1           0        0.953366    0.493596    2.046385
     19          6           0        0.496596   -1.748481    0.395683
     20          1           0        0.182798   -2.785802    0.516002
     21          1           0        1.068504   -1.496724    1.291422
     22          6           0        1.454319   -1.647156   -0.813124
     23          1           0        2.010474   -2.585908   -0.905579
     24          1           0        0.892979   -1.506338   -1.738407
     25          6           0        2.500667   -0.564185   -0.666238
     26          1           0        2.618906    0.120907   -1.528332
     27          8           0        3.245118   -0.491176    0.283092
     28          6           0       -4.523283   -1.516675   -0.014166
     29          7           0       -5.535960   -2.054321   -0.024775
 ---------------------------------------------------------------------
                    Distance matrix (angstroms):
                    1          2          3          4          5
     1  C    0.000000
     2  C    1.394198   0.000000
     3  C    2.434865   1.390077   0.000000
     4  C    2.808788   2.397531   1.387244   0.000000
     5  C    2.424204   2.758472   2.401653   1.389522   0.000000
     6  C    1.408823   2.405873   2.798000   2.425299   1.396376
     7  H    2.137630   1.083941   2.140850   3.377169   3.842271
     8  H    3.891559   3.384285   2.149403   1.082824   2.144396
     9  H    3.404297   3.839878   3.377314   2.137553   1.081443
    10  N    2.439016   3.704805   4.223151   3.736693   2.463751
    11  C    3.682707   4.814269   5.060633   4.256468   2.890664
    12  H    4.268204   5.260793   5.274688   4.259005   2.909304
    13  H    4.422720   5.667501   6.056646   5.326918   3.961968
    14  H    3.784675   4.766133   4.908749   4.092648   2.868953
    15  C    3.154904   4.398222   4.996569   4.585422   3.390391
    16  H    3.782923   4.848793   5.192724   4.581794   3.403278
    17  H    3.982027   5.306901   5.999773   5.599956   4.352248
    18  H    2.837152   3.998584   4.774142   4.643837   3.675300
    19  C    1.510107   2.508757   3.802661   4.315091   3.823463
    20  H    2.118704   2.539509   3.927671   4.745732   4.539868
    21  H    2.174142   3.240574   4.479678   4.887396   4.255780
    22  C    2.552790   3.609221   4.765426   5.085462   4.406934
    23  H    3.429462   4.302679   5.549376   6.031530   5.455580
    24  H    2.644813   3.500022   4.470033   4.731569   4.146860
    25  C    3.387115   4.683225   5.707532   5.717168   4.719722
    26  H    3.937343   5.203678   6.050319   5.866230   4.783080
    27  O    4.009342   5.339524   6.421689   6.441638   5.395314
    28  C    3.839148   2.539901   1.540000   2.542890   3.819564
    29  N    4.937542   3.591099   2.686600   3.595602   4.923135
                    6          7          8          9         10
     6  C    0.000000
     7  H    3.386437   0.000000
     8  H    3.401919   4.277667   0.000000
     9  H    2.148334   4.923689   2.456092   0.000000
    10  N    1.425285   4.573041   4.606035   2.693910   0.000000
    11  C    2.452610   5.757866   4.899367   2.596970   1.454055
    12  H    2.897548   6.276763   4.715723   2.261676   2.144575
    13  H    3.349025   6.536520   5.990544   3.670805   2.077964
    14  H    2.642969   5.702364   4.669860   2.599762   2.094040
    15  C    2.426484   5.163827   5.428513   3.549025   1.462666
    16  H    2.850605   5.697238   5.267249   3.326737   2.124538
    17  H    3.333286   6.001972   6.441488   4.418432   2.096616
    18  H    2.589062   4.606465   5.565485   4.087206   2.105208
    19  C    2.555672   2.682546   5.397385   4.698273   2.901542
    20  H    3.423127   2.248502   5.805863   5.509066   3.965517
    21  H    2.929804   3.423946   5.957218   5.028222   2.937230
    22  C    3.138417   3.826204   6.123701   5.113730   3.042815
    23  H    4.194687   4.267244   7.074987   6.197511   4.098769
    24  H    3.100949   3.794058   5.700217   4.833278   3.215693
    25  C    3.423391   5.092966   6.709446   5.161804   2.658260
    26  H    3.669123   5.730504   6.769790   5.047402   2.773615
    27  O    4.052850   5.697025   7.446552   5.794597   3.116832
    28  C    4.337942   2.721074   2.746675   4.679158   5.763005
    29  N    5.484519   3.547544   3.577980   5.725729   6.909539
                   11         12         13         14         15
    11  C    0.000000
    12  H    1.100204   0.000000
    13  H    1.091576   1.767596   0.000000
    14  H    1.089689   1.778060   1.771154   0.000000
    15  C    2.412728   2.715729   2.646367   3.358258   0.000000
    16  H    2.678424   2.513730   3.016147   3.683091   1.099486
    17  H    2.681600   3.086872   2.448538   3.665696   1.090023
    18  H    3.357483   3.709677   3.643386   4.182666   1.086707
    19  C    4.223778   5.016347   4.647767   4.412736   3.338127
    20  H    5.280109   6.054700   5.726838   5.392603   4.351676
    21  H    4.334647   5.054904   4.619791   4.769732   2.868242
    22  C    4.007423   5.009373   4.191142   4.004426   3.768591
    23  H    5.044176   6.066236   5.116389   5.025818   4.675236
    24  H    3.928216   4.934882   4.235642   3.631999   4.277058
    25  C    3.351336   4.388969   3.168190   3.569910   3.165807
    26  H    2.958420   4.041180   2.622145   2.986035   3.539574
    27  O    3.881943   4.795346   3.519676   4.367331   3.050716
    28  C    6.566106   6.727648   7.576973   6.343788   6.490631
    29  N    7.695878   7.831076   8.713415   7.439550   7.614925
                   16         17         18         19         20
    16  H    0.000000
    17  H    1.786712   0.000000
    18  H    1.771421   1.759422   0.000000
    19  C    4.249029   3.836506   2.821412   0.000000
    20  H    5.215241   4.856588   3.700040   1.090404   0.000000
    21  H    3.798276   3.250788   2.131807   1.092158   1.745701
    22  C    4.800352   3.945705   3.607016   1.545547   2.163298
    23  H    5.740284   4.730109   4.394874   2.164808   2.324059
    24  H    5.216429   4.552113   4.281125   2.184054   2.687703
    25  C    4.232283   2.958384   3.297175   2.558620   3.421373
    26  H    4.492297   3.265668   3.961253   3.420621   4.308466
    27  O    4.112591   2.550234   3.054686   3.024544   3.833714
    28  C    6.634799   7.506477   6.187143   5.041913   4.902954
    29  N    7.733053   8.635920   7.272753   6.054920   5.790656
                   21         22         23         24         25
    21  H    0.000000
    22  C    2.144900   0.000000
    23  H    2.626869   1.095040   0.000000
    24  H    3.034924   1.091367   1.762915   0.000000
    25  C    2.598683   1.513025   2.094024   2.149851   0.000000
    26  H    3.601595   2.234688   2.843389   2.381361   1.107492
    27  O    2.601058   2.396861   2.706508   3.263368   1.208621
    28  C    5.742215   6.032170   6.680408   5.684101   7.118167
    29  N    6.757384   7.046366   7.616237   6.675933   8.198741
                   26         27         28         29
    26  H    0.000000
    27  O    2.011975   0.000000
    28  C    7.482328   7.841432   0.000000
    29  N    8.572872   8.924435   1.146600   0.000000
 Stoichiometry    C12H14N2O
 Framework group  C1[X(C12H14N2O)]
 Deg. of freedom    81
 Full point group                 C1      NOp   1
 Largest Abelian subgroup         C1      NOp   1
 Largest concise Abelian subgroup C1      NOp   1
                         Standard orientation:                         
 ---------------------------------------------------------------------
 Center     Atomic      Atomic             Coordinates (Angstroms)
 Number     Number       Type             X           Y           Z
 ---------------------------------------------------------------------
      1          6           0       -0.316938   -0.639886    0.252346
      2          6           0       -1.672371   -0.966267    0.244090
      3          6           0       -2.657287   -0.014282    0.007486
      4          6           0       -2.288062    1.300487   -0.236439
      5          6           0       -0.944471    1.654242   -0.216630
      6          6           0        0.046711    0.704232    0.038136
      7          1           0       -1.959836   -1.998982    0.404690
      8          1           0       -3.040082    2.054448   -0.432691
      9          1           0       -0.666630    2.684797   -0.390638
     10          7           0        1.427786    1.054852    0.071803
     11          6           0        1.845852    2.156086   -0.780712
     12          1           0        1.547968    3.143790   -0.398409
     13          1           0        2.935029    2.146627   -0.852417
     14          1           0        1.430963    2.031405   -1.780584
     15          6           0        1.986468    1.173442    1.418355
     16          1           0        1.685652    2.118651    1.892655
     17          1           0        3.074213    1.124149    1.368057
     18          1           0        1.644389    0.354291    2.045175
     19          6           0        0.709923   -1.737447    0.398429
     20          1           0        0.179236   -2.682111    0.520744
     21          1           0        1.324483   -1.614539    1.292866
     22          6           0        1.664554   -1.847111   -0.812095
     23          1           0        2.004120   -2.884096   -0.904124
     24          1           0        1.145240   -1.589071   -1.736653
     25          6           0        2.920812   -1.016187   -0.668475
     26          1           0        3.182907   -0.373833   -1.531740
     27          8           0        3.665231   -1.105086    0.279524
     28          6           0       -4.141511   -0.424839   -0.003496
     29          7           0       -5.246584   -0.730518   -0.011673
 ---------------------------------------------------------------------
 Rotational constants (GHZ):      1.2147235      0.3638042      0.3046589
 Standard basis: def2TZVP (5D, 7F)
 There are   624 symmetry adapted cartesian basis functions of A   symmetry.
 There are   549 symmetry adapted basis functions of A   symmetry.
   549 basis functions,   877 primitive gaussians,   624 cartesian basis functions
    54 alpha electrons       54 beta electrons
       nuclear repulsion energy       953.6504301527 Hartrees.
 NAtoms=   29 NActive=   29 NUniq=   29 SFac= 1.00D+00 NAtFMM=   60 NAOKFM=F Big=F
 Integral buffers will be    131072 words long.
 Raffenetti 2 integral format.
 Two-electron integral symmetry is turned on.
 Nuclear repulsion after empirical dispersion term =      953.6194336664 Hartrees.
 One-electron integrals computed using PRISM.
   1 Symmetry operations used in ECPInt.
 ECPInt:  NShTT=   24531 NPrTT=   74292 LenC2=   22842 LenP2D=   51724.
 LDataN:  DoStor=T MaxTD1= 6 Len=  172
 NBasis=   549 RedAO= T EigKep=  5.04D-06  NBF=   549
 NBsUse=   549 1.00D-06 EigRej= -1.00D+00 NBFU=   549
 ExpMin= 9.52D-02 ExpMax= 2.70D+04 ExpMxC= 9.22D+02 IAcc=3 IRadAn=         5 AccDes= 0.00D+00
 Harris functional with IExCor=  402 and IRadAn=       5 diagonalized for initial guess.
 HarFok:  IExCor=  402 AccDes= 0.00D+00 IRadAn=         5 IDoV= 1 UseB2=F ITyADJ=14
 ICtDFT=  3500011 ScaDFX=  1.000000  1.000000  1.000000  1.000000
 FoFCou: FMM=F IPFlag=           0 FMFlag=      100000 FMFlg1=           0
         NFxFlg=           0 DoJE=T BraDBF=F KetDBF=T FulRan=T
         wScrn=  0.000000 ICntrl=     500 IOpCl=  0 I1Cent=   200000004 NGrid=           0
         NMat0=    1 NMatS0=      1 NMatT0=    0 NMatD0=    1 NMtDS0=    0 NMtDT0=    0
 Petite list used in FoFCou.
 Keep R1 ints in memory in canonical form, NReq=11520166478.
 Requested convergence on RMS density matrix=1.00D-08 within 300 cycles.
 Requested convergence on MAX density matrix=1.00D-06.
 Requested convergence on             energy=1.00D-06.
 No special actions if energy rises.
 Integral accuracy reduced to 1.0D-05 until final iterations.
 Initial convergence to 1.0D-05 achieved.  Increase integral accuracy.
 SCF Done:  E(RB3LYP) =  -650.669342049     A.U. after   15 cycles
            NFock= 15  Conv=0.49D-08     -V/T= 2.0053

 **********************************************************************

            Population analysis using the SCF density.

 **********************************************************************

 Orbital symmetries:
       Occupied  (A) (A) (A) (A) (A) (A) (A) (A) (A) (A) (A) (A)
                 (A) (A) (A) (A) (A) (A) (A) (A) (A) (A) (A) (A)
                 (A) (A) (A) (A) (A) (A) (A) (A) (A) (A) (A) (A)
                 (A) (A) (A) (A) (A) (A) (A) (A) (A) (A) (A) (A)
                 (A) (A) (A) (A) (A) (A)
       Virtual   (A) (A) (A) (A) (A) (A) (A) (A) (A) (A) (A) (A)
                 (A) (A) (A) (A) (A) (A) (A) (A) (A) (A) (A) (A)
                 (A) (A) (A) (A) (A) (A) (A) (A) (A) (A) (A) (A)
                 (A) (A) (A) (A) (A) (A) (A) (A) (A) (A) (A) (A)
                 (A) (A) (A) (A) (A) (A) (A) (A) (A) (A) (A) (A)
                 (A) (A) (A) (A) (A) (A) (A) (A) (A) (A) (A) (A)
                 (A) (A) (A) (A) (A) (A) (A) (A) (A) (A) (A) (A)
                 (A) (A) (A) (A) (A) (A) (A) (A) (A) (A) (A) (A)
                 (A) (A) (A) (A) (A) (A) (A) (A) (A) (A) (A) (A)
                 (A) (A) (A) (A) (A) (A) (A) (A) (A) (A) (A) (A)
                 (A) (A) (A) (A) (A) (A) (A) (A) (A) (A) (A) (A)
                 (A) (A) (A) (A) (A) (A) (A) (A) (A) (A) (A) (A)
                 (A) (A) (A) (A) (A) (A) (A) (A) (A) (A) (A) (A)
                 (A) (A) (A) (A) (A) (A) (A) (A) (A) (A) (A) (A)
                 (A) (A) (A) (A) (A) (A) (A) (A) (A) (A) (A) (A)
                 (A) (A) (A) (A) (A) (A) (A) (A) (A) (A) (A) (A)
                 (A) (A) (A) (A) (A) (A) (A) (A) (A) (A) (A) (A)
                 (A) (A) (A) (A) (A) (A) (A) (A) (A) (A) (A) (A)
                 (A) (A) (A) (A) (A) (A) (A) (A) (A) (A) (A) (A)
                 (A) (A) (A) (A) (A) (A) (A) (A) (A) (A) (A) (A)
                 (A) (A) (A) (A) (A) (A) (A) (A) (A) (A) (A) (A)
                 (A) (A) (A) (A) (A) (A) (A) (A) (A) (A) (A) (A)
                 (A) (A) (A) (A) (A) (A) (A) (A) (A) (A) (A) (A)
                 (A) (A) (A) (A) (A) (A) (A) (A) (A) (A) (A) (A)
                 (A) (A) (A) (A) (A) (A) (A) (A) (A) (A) (A) (A)
                 (A) (A) (A) (A) (A) (A) (A) (A) (A) (A) (A) (A)
                 (A) (A) (A) (A) (A) (A) (A) (A) (A) (A) (A) (A)
                 (A) (A) (A) (A) (A) (A) (A) (A) (A) (A) (A) (A)
                 (A) (A) (A) (A) (A) (A) (A) (A) (A) (A) (A) (A)
                 (A) (A) (A) (A) (A) (A) (A) (A) (A) (A) (A) (A)
                 (A) (A) (A) (A) (A) (A) (A) (A) (A) (A) (A) (A)
                 (A) (A) (A) (A) (A) (A) (A) (A) (A) (A) (A) (A)
                 (A) (A) (A) (A) (A) (A) (A) (A) (A) (A) (A) (A)
                 (A) (A) (A) (A) (A) (A) (A) (A) (A) (A) (A) (A)
                 (A) (A) (A) (A) (A) (A) (A) (A) (A) (A) (A) (A)
                 (A) (A) (A) (A) (A) (A) (A) (A) (A) (A) (A) (A)
                 (A) (A) (A) (A) (A) (A) (A) (A) (A) (A) (A) (A)
                 (A) (A) (A) (A) (A) (A) (A) (A) (A) (A) (A) (A)
                 (A) (A) (A) (A) (A) (A) (A) (A) (A) (A) (A) (A)
                 (A) (A) (A) (A) (A) (A) (A) (A) (A) (A) (A) (A)
                 (A) (A) (A) (A) (A) (A) (A) (A) (A) (A) (A) (A)
                 (A) (A) (A)
 The electronic state is 1-A.
 Alpha  occ. eigenvalues --  -19.12283 -14.35031 -14.31694 -10.26453 -10.23774
 Alpha  occ. eigenvalues --  -10.23675 -10.21848 -10.21495 -10.20945 -10.20786
 Alpha  occ. eigenvalues --  -10.20771 -10.20626 -10.20116 -10.19753 -10.19239
 Alpha  occ. eigenvalues --   -1.05118  -0.96643  -0.91544  -0.88497  -0.82218
 Alpha  occ. eigenvalues --   -0.78203  -0.76681  -0.73398  -0.69586  -0.67469
 Alpha  occ. eigenvalues --   -0.63009  -0.61403  -0.57690  -0.54985  -0.52636
 Alpha  occ. eigenvalues --   -0.51887  -0.49987  -0.48525  -0.47612  -0.46039
 Alpha  occ. eigenvalues --   -0.45720  -0.44676  -0.44356  -0.42152  -0.41613
 Alpha  occ. eigenvalues --   -0.41037  -0.40110  -0.39632  -0.39299  -0.37984
 Alpha  occ. eigenvalues --   -0.37464  -0.36643  -0.35963  -0.35197  -0.34530
 Alpha  occ. eigenvalues --   -0.29251  -0.28101  -0.26235  -0.24280
 Alpha virt. eigenvalues --   -0.05582  -0.04275  -0.02904   0.01623   0.02898
 Alpha virt. eigenvalues --    0.03216   0.03846   0.04633   0.05560   0.06551
 Alpha virt. eigenvalues --    0.06879   0.07608   0.08233   0.08972   0.09499
 Alpha virt. eigenvalues --    0.10168   0.10419   0.11285   0.12194   0.12748
 Alpha virt. eigenvalues --    0.13416   0.13817   0.14455   0.15677   0.16730
 Alpha virt. eigenvalues --    0.17180   0.17838   0.18612   0.19320   0.19743
 Alpha virt. eigenvalues --    0.20786   0.21246   0.21512   0.22223   0.23589
 Alpha virt. eigenvalues --    0.23870   0.23932   0.25574   0.26603   0.27160
 Alpha virt. eigenvalues --    0.27775   0.28592   0.28690   0.30012   0.30925
 Alpha virt. eigenvalues --    0.31247   0.31809   0.32430   0.32850   0.33061
 Alpha virt. eigenvalues --    0.34105   0.35542   0.36067   0.36398   0.37432
 Alpha virt. eigenvalues --    0.38028   0.38296   0.38671   0.39148   0.39632
 Alpha virt. eigenvalues --    0.39982   0.40267   0.40700   0.41537   0.42070
 Alpha virt. eigenvalues --    0.42616   0.42867   0.43844   0.44256   0.44466
 Alpha virt. eigenvalues --    0.44704   0.46136   0.46374   0.46867   0.47514
 Alpha virt. eigenvalues --    0.48159   0.48448   0.48867   0.49307   0.50586
 Alpha virt. eigenvalues --    0.51051   0.51651   0.52581   0.53584   0.54742
 Alpha virt. eigenvalues --    0.55555   0.57207   0.58189   0.58702   0.59904
 Alpha virt. eigenvalues --    0.61657   0.62671   0.63144   0.63917   0.63973
 Alpha virt. eigenvalues --    0.65308   0.65660   0.66080   0.67374   0.67714
 Alpha virt. eigenvalues --    0.68933   0.69953   0.70923   0.71243   0.73228
 Alpha virt. eigenvalues --    0.74085   0.74983   0.75056   0.78705   0.79423
 Alpha virt. eigenvalues --    0.79630   0.79771   0.81057   0.82084   0.84006
 Alpha virt. eigenvalues --    0.84216   0.84821   0.86233   0.86745   0.88515
 Alpha virt. eigenvalues --    0.89629   0.90334   0.90976   0.91765   0.92685
 Alpha virt. eigenvalues --    0.94067   0.95271   0.96762   0.99010   1.00203
 Alpha virt. eigenvalues --    1.00722   1.01448   1.02734   1.04006   1.04831
 Alpha virt. eigenvalues --    1.05158   1.05967   1.07552   1.08571   1.08705
 Alpha virt. eigenvalues --    1.09501   1.11411   1.12450   1.13605   1.14834
 Alpha virt. eigenvalues --    1.16812   1.17672   1.18979   1.19973   1.20535
 Alpha virt. eigenvalues --    1.22137   1.23191   1.24333   1.25993   1.26423
 Alpha virt. eigenvalues --    1.27824   1.28939   1.29001   1.29834   1.32208
 Alpha virt. eigenvalues --    1.33334   1.34329   1.34567   1.36606   1.38071
 Alpha virt. eigenvalues --    1.39365   1.40178   1.41845   1.42775   1.44751
 Alpha virt. eigenvalues --    1.45824   1.46751   1.48372   1.49401   1.49876
 Alpha virt. eigenvalues --    1.50853   1.51639   1.52043   1.53092   1.53844
 Alpha virt. eigenvalues --    1.54511   1.55085   1.55485   1.56146   1.57608
 Alpha virt. eigenvalues --    1.58330   1.59052   1.60323   1.61261   1.61704
 Alpha virt. eigenvalues --    1.63178   1.63893   1.64444   1.65022   1.66048
 Alpha virt. eigenvalues --    1.67218   1.69154   1.69454   1.70172   1.72725
 Alpha virt. eigenvalues --    1.74801   1.75051   1.77220   1.77911   1.79563
 Alpha virt. eigenvalues --    1.80269   1.82708   1.83093   1.84044   1.84406
 Alpha virt. eigenvalues --    1.85975   1.88697   1.89085   1.89595   1.91087
 Alpha virt. eigenvalues --    1.92565   1.93075   1.95086   1.96712   1.97890
 Alpha virt. eigenvalues --    2.00175   2.00843   2.01630   2.03106   2.05023
 Alpha virt. eigenvalues --    2.07831   2.08634   2.09937   2.11549   2.12725
 Alpha virt. eigenvalues --    2.14120   2.14450   2.16961   2.17301   2.18693
 Alpha virt. eigenvalues --    2.20093   2.20840   2.21971   2.23091   2.25642
 Alpha virt. eigenvalues --    2.26667   2.27381   2.28490   2.29645   2.30548
 Alpha virt. eigenvalues --    2.31367   2.33882   2.34288   2.35364   2.35846
 Alpha virt. eigenvalues --    2.37688   2.39217   2.41034   2.42368   2.42595
 Alpha virt. eigenvalues --    2.44556   2.45358   2.46491   2.46762   2.49713
 Alpha virt. eigenvalues --    2.50765   2.52117   2.52313   2.53292   2.54934
 Alpha virt. eigenvalues --    2.55868   2.56696   2.56848   2.58146   2.59603
 Alpha virt. eigenvalues --    2.60445   2.60841   2.62636   2.62803   2.63974
 Alpha virt. eigenvalues --    2.64856   2.65621   2.66391   2.68132   2.68894
 Alpha virt. eigenvalues --    2.69568   2.70268   2.71429   2.72066   2.72676
 Alpha virt. eigenvalues --    2.73555   2.74436   2.76495   2.77916   2.78940
 Alpha virt. eigenvalues --    2.80426   2.81856   2.82404   2.83686   2.84046
 Alpha virt. eigenvalues --    2.86059   2.86408   2.86901   2.87934   2.88738
 Alpha virt. eigenvalues --    2.90814   2.92375   2.93302   2.94412   2.94976
 Alpha virt. eigenvalues --    2.96361   2.97078   2.97949   2.98360   2.99862
 Alpha virt. eigenvalues --    3.01831   3.02590   3.03503   3.04705   3.05776
 Alpha virt. eigenvalues --    3.06031   3.07754   3.08315   3.09214   3.10892
 Alpha virt. eigenvalues --    3.11974   3.12181   3.12756   3.13737   3.14877
 Alpha virt. eigenvalues --    3.15644   3.16147   3.16925   3.18120   3.19212
 Alpha virt. eigenvalues --    3.20653   3.20840   3.21429   3.22954   3.23270
 Alpha virt. eigenvalues --    3.23913   3.26851   3.27467   3.28091   3.28588
 Alpha virt. eigenvalues --    3.30128   3.30568   3.31264   3.32718   3.33103
 Alpha virt. eigenvalues --    3.33887   3.34483   3.34850   3.36411   3.37134
 Alpha virt. eigenvalues --    3.38200   3.38299   3.39383   3.40955   3.41651
 Alpha virt. eigenvalues --    3.44172   3.44367   3.46210   3.46755   3.47573
 Alpha virt. eigenvalues --    3.49146   3.49678   3.50023   3.51952   3.52326
 Alpha virt. eigenvalues --    3.55022   3.55489   3.58675   3.59206   3.60232
 Alpha virt. eigenvalues --    3.60516   3.61272   3.64344   3.65630   3.66655
 Alpha virt. eigenvalues --    3.67748   3.70147   3.71248   3.72678   3.75617
 Alpha virt. eigenvalues --    3.76210   3.76508   3.78481   3.78571   3.80329
 Alpha virt. eigenvalues --    3.85564   3.86278   3.87251   3.89484   3.90656
 Alpha virt. eigenvalues --    3.91644   3.95124   3.97298   3.97493   3.97915
 Alpha virt. eigenvalues --    3.99434   4.03862   4.04442   4.04920   4.06721
 Alpha virt. eigenvalues --    4.08332   4.09590   4.12535   4.14341   4.15057
 Alpha virt. eigenvalues --    4.17995   4.19607   4.20590   4.21152   4.22426
 Alpha virt. eigenvalues --    4.24021   4.26617   4.26884   4.29996   4.31337
 Alpha virt. eigenvalues --    4.32726   4.34800   4.37189   4.38364   4.40025
 Alpha virt. eigenvalues --    4.42048   4.42598   4.45968   4.47616   4.50692
 Alpha virt. eigenvalues --    4.52169   4.53241   4.55705   4.56162   4.58131
 Alpha virt. eigenvalues --    4.59355   4.64709   4.65383   4.68519   4.71576
 Alpha virt. eigenvalues --    4.74432   4.77623   4.79572   4.83749   4.89442
 Alpha virt. eigenvalues --    4.90217   4.93141   4.95647   4.98923   4.99944
 Alpha virt. eigenvalues --    5.04522   5.11535   5.12458   5.16140   5.18563
 Alpha virt. eigenvalues --    5.19508   5.23404   5.24874   5.30065   5.32642
 Alpha virt. eigenvalues --    5.34069   5.37799   5.38989   5.46565   5.48155
 Alpha virt. eigenvalues --    5.51592   5.55391   5.56352   5.64880   5.65439
 Alpha virt. eigenvalues --    5.69217   5.76639   5.77301   5.83666   5.95796
 Alpha virt. eigenvalues --    6.01363   6.09356   6.15228   6.31598   6.37531
 Alpha virt. eigenvalues --    6.39088   6.47284   6.85299   6.93603   7.06360
 Alpha virt. eigenvalues --   22.13889  22.42075  22.45893  22.48796  22.55513
 Alpha virt. eigenvalues --   22.70725  22.80956  22.83942  22.87234  22.94675
 Alpha virt. eigenvalues --   23.32717  23.51350  32.08425  32.74030  43.87695
          Condensed to atoms (all electrons):
               1          2          3          4          5          6
     1  C    5.343916   0.359854   0.026670  -0.083047   0.034292   0.266722
     2  C    0.359854   5.221412   0.420158  -0.023755  -0.081798   0.002441
     3  C    0.026670   0.420158   4.974948   0.463563   0.005837  -0.086266
     4  C   -0.083047  -0.023755   0.463563   5.057607   0.386308   0.032686
     5  C    0.034292  -0.081798   0.005837   0.386308   5.163732   0.358903
     6  C    0.266722   0.002441  -0.086266   0.032686   0.358903   5.271460
     7  H   -0.067636   0.436004  -0.045632   0.011023  -0.003946   0.021283
     8  H   -0.000781   0.009433  -0.040793   0.425880  -0.049134   0.009306
     9  H    0.009445  -0.000878   0.010027  -0.048013   0.442881  -0.063536
    10  N   -0.084698   0.006286   0.000890   0.006814  -0.069400   0.317447
    11  C    0.006715  -0.000045   0.000178  -0.001341   0.005255  -0.084603
    12  H   -0.004357   0.000247  -0.000088  -0.000963   0.004010  -0.014994
    13  H    0.000723  -0.000073   0.000022   0.000057   0.000803   0.009449
    14  H    0.004208  -0.000070  -0.000189   0.000486  -0.011248   0.002380
    15  C    0.019357   0.001062   0.000098   0.000199  -0.014234  -0.058532
    16  H   -0.001406   0.000187  -0.000211  -0.000849   0.002753  -0.009136
    17  H   -0.001320  -0.000155  -0.000011   0.000094  -0.000333   0.011412
    18  H    0.000162   0.002368  -0.000273   0.000050   0.002011  -0.010318
    19  C    0.305353  -0.056130   0.011571  -0.005296   0.021397  -0.193170
    20  H   -0.068553   0.002746   0.001727   0.000509  -0.001137   0.012262
    21  H   -0.019893   0.010009  -0.001494   0.000710  -0.001497  -0.007131
    22  C   -0.052127  -0.008508   0.000887  -0.001090   0.001261  -0.015061
    23  H    0.007705  -0.000423  -0.000055   0.000004  -0.000025   0.001432
    24  H   -0.005350   0.003966  -0.000475   0.000423  -0.000767   0.013851
    25  C    0.005858  -0.000566   0.000383   0.000077   0.001110   0.002642
    26  H    0.005406   0.000034   0.000050   0.000121  -0.000036   0.001210
    27  O    0.007460  -0.000209   0.000016   0.000008  -0.000081   0.002101
    28  C   -0.004022  -0.049120   0.074668  -0.050834   0.000075   0.003094
    29  N   -0.000580   0.002952  -0.048657   0.002468  -0.000384   0.000055
               7          8          9         10         11         12
     1  C   -0.067636  -0.000781   0.009445  -0.084698   0.006715  -0.004357
     2  C    0.436004   0.009433  -0.000878   0.006286  -0.000045   0.000247
     3  C   -0.045632  -0.040793   0.010027   0.000890   0.000178  -0.000088
     4  C    0.011023   0.425880  -0.048013   0.006814  -0.001341  -0.000963
     5  C   -0.003946  -0.049134   0.442881  -0.069400   0.005255   0.004010
     6  C    0.021283   0.009306  -0.063536   0.317447  -0.084603  -0.014994
     7  H    0.534861  -0.000301   0.000038  -0.000165   0.000033   0.000000
     8  H   -0.000301   0.526860  -0.006440  -0.000293  -0.000006   0.000068
     9  H    0.000038  -0.006440   0.542324  -0.006122   0.003700   0.004394
    10  N   -0.000165  -0.000293  -0.006122   6.712526   0.284432  -0.032920
    11  C    0.000033  -0.000006   0.003700   0.284432   4.938095   0.405818
    12  H    0.000000   0.000068   0.004394  -0.032920   0.405818   0.607354
    13  H   -0.000001  -0.000005  -0.000036  -0.048294   0.410446  -0.040167
    14  H    0.000003  -0.000005  -0.003059  -0.042141   0.415050  -0.036847
    15  C    0.000052   0.000011  -0.000690   0.229500  -0.061917  -0.016309
    16  H   -0.000002   0.000026   0.000532  -0.028280  -0.008415   0.016043
    17  H   -0.000001  -0.000001  -0.000061  -0.045553  -0.007017  -0.003303
    18  H    0.000020   0.000001   0.000044  -0.037032   0.009379  -0.000363
    19  C   -0.016864   0.000148  -0.000002  -0.019375  -0.001511  -0.000286
    20  H    0.006965  -0.000002   0.000010   0.000009   0.000021  -0.000001
    21  H    0.001029  -0.000004  -0.000015  -0.005977  -0.000196  -0.000034
    22  C    0.000140  -0.000003   0.000163  -0.009256  -0.000395  -0.000402
    23  H   -0.000092   0.000000  -0.000001   0.002976  -0.000067   0.000017
    24  H    0.000502  -0.000002  -0.000001  -0.002237  -0.000376   0.000006
    25  C    0.000114   0.000000  -0.000049   0.058174  -0.002192   0.002146
    26  H    0.000014  -0.000001  -0.000073  -0.007757  -0.000048   0.000089
    27  O    0.000007   0.000000  -0.000003  -0.018106  -0.000277  -0.000200
    28  C   -0.001701  -0.005928  -0.000204  -0.000028  -0.000020  -0.000002
    29  N    0.001296   0.000969   0.000002  -0.000001   0.000000   0.000000
              13         14         15         16         17         18
     1  C    0.000723   0.004208   0.019357  -0.001406  -0.001320   0.000162
     2  C   -0.000073  -0.000070   0.001062   0.000187  -0.000155   0.002368
     3  C    0.000022  -0.000189   0.000098  -0.000211  -0.000011  -0.000273
     4  C    0.000057   0.000486   0.000199  -0.000849   0.000094   0.000050
     5  C    0.000803  -0.011248  -0.014234   0.002753  -0.000333   0.002011
     6  C    0.009449   0.002380  -0.058532  -0.009136   0.011412  -0.010318
     7  H   -0.000001   0.000003   0.000052  -0.000002  -0.000001   0.000020
     8  H   -0.000005  -0.000005   0.000011   0.000026  -0.000001   0.000001
     9  H   -0.000036  -0.003059  -0.000690   0.000532  -0.000061   0.000044
    10  N   -0.048294  -0.042141   0.229500  -0.028280  -0.045553  -0.037032
    11  C    0.410446   0.415050  -0.061917  -0.008415  -0.007017   0.009379
    12  H   -0.040167  -0.036847  -0.016309   0.016043  -0.003303  -0.000363
    13  H    0.542348  -0.016650  -0.000400  -0.003933   0.005764   0.000332
    14  H   -0.016650   0.539036   0.011742  -0.000701   0.000336  -0.000382
    15  C   -0.000400   0.011742   4.955933   0.384126   0.418072   0.415976
    16  H   -0.003933  -0.000701   0.384126   0.602672  -0.037405  -0.027651
    17  H    0.005764   0.000336   0.418072  -0.037405   0.522421  -0.016651
    18  H    0.000332  -0.000382   0.415976  -0.027651  -0.016651   0.534776
    19  C    0.000502  -0.000211  -0.009175  -0.000148   0.002159  -0.001453
    20  H    0.000001   0.000000   0.000318  -0.000016   0.000029   0.000205
    21  H   -0.000006   0.000057   0.004285  -0.000248  -0.001216   0.002306
    22  C    0.002200   0.000017  -0.005443  -0.000358   0.005365   0.000953
    23  H   -0.000063  -0.000028  -0.000235   0.000036  -0.000148  -0.000142
    24  H   -0.000114   0.000331   0.000212  -0.000018  -0.000211   0.000063
    25  C   -0.005714  -0.001805  -0.018478   0.003486  -0.009972  -0.002527
    26  H   -0.001884   0.000844   0.005507  -0.000083  -0.002114  -0.000628
    27  O    0.001852   0.000058   0.000020   0.000000   0.009578  -0.001515
    28  C    0.000000   0.000001  -0.000011  -0.000006   0.000000   0.000002
    29  N    0.000000   0.000000   0.000000   0.000000   0.000000   0.000000
              19         20         21         22         23         24
     1  C    0.305353  -0.068553  -0.019893  -0.052127   0.007705  -0.005350
     2  C   -0.056130   0.002746   0.010009  -0.008508  -0.000423   0.003966
     3  C    0.011571   0.001727  -0.001494   0.000887  -0.000055  -0.000475
     4  C   -0.005296   0.000509   0.000710  -0.001090   0.000004   0.000423
     5  C    0.021397  -0.001137  -0.001497   0.001261  -0.000025  -0.000767
     6  C   -0.193170   0.012262  -0.007131  -0.015061   0.001432   0.013851
     7  H   -0.016864   0.006965   0.001029   0.000140  -0.000092   0.000502
     8  H    0.000148  -0.000002  -0.000004  -0.000003   0.000000  -0.000002
     9  H   -0.000002   0.000010  -0.000015   0.000163  -0.000001  -0.000001
    10  N   -0.019375   0.000009  -0.005977  -0.009256   0.002976  -0.002237
    11  C   -0.001511   0.000021  -0.000196  -0.000395  -0.000067  -0.000376
    12  H   -0.000286  -0.000001  -0.000034  -0.000402   0.000017   0.000006
    13  H    0.000502   0.000001  -0.000006   0.002200  -0.000063  -0.000114
    14  H   -0.000211   0.000000   0.000057   0.000017  -0.000028   0.000331
    15  C   -0.009175   0.000318   0.004285  -0.005443  -0.000235   0.000212
    16  H   -0.000148  -0.000016  -0.000248  -0.000358   0.000036  -0.000018
    17  H    0.002159   0.000029  -0.001216   0.005365  -0.000148  -0.000211
    18  H   -0.001453   0.000205   0.002306   0.000953  -0.000142   0.000063
    19  C    5.153129   0.412663   0.398630   0.327746  -0.028250  -0.047610
    20  H    0.412663   0.581270  -0.028568  -0.025416  -0.009741   0.000163
    21  H    0.398630  -0.028568   0.570466  -0.075408   0.002897   0.008076
    22  C    0.327746  -0.025416  -0.075408   5.334340   0.367441   0.360246
    23  H   -0.028250  -0.009741   0.002897   0.367441   0.578219  -0.026525
    24  H   -0.047610   0.000163   0.008076   0.360246  -0.026525   0.598728
    25  C   -0.053211   0.004355  -0.002677   0.202704  -0.018050  -0.012614
    26  H   -0.007480  -0.000424   0.004936  -0.184752   0.007716   0.009232
    27  O   -0.017774   0.000048   0.022108  -0.120960   0.002125   0.005703
    28  C   -0.003100  -0.000069   0.000059   0.000036  -0.000001   0.000048
    29  N   -0.000033   0.000002   0.000000   0.000000   0.000000   0.000000
              25         26         27         28         29
     1  C    0.005858   0.005406   0.007460  -0.004022  -0.000580
     2  C   -0.000566   0.000034  -0.000209  -0.049120   0.002952
     3  C    0.000383   0.000050   0.000016   0.074668  -0.048657
     4  C    0.000077   0.000121   0.000008  -0.050834   0.002468
     5  C    0.001110  -0.000036  -0.000081   0.000075  -0.000384
     6  C    0.002642   0.001210   0.002101   0.003094   0.000055
     7  H    0.000114   0.000014   0.000007  -0.001701   0.001296
     8  H    0.000000  -0.000001   0.000000  -0.005928   0.000969
     9  H   -0.000049  -0.000073  -0.000003  -0.000204   0.000002
    10  N    0.058174  -0.007757  -0.018106  -0.000028  -0.000001
    11  C   -0.002192  -0.000048  -0.000277  -0.000020   0.000000
    12  H    0.002146   0.000089  -0.000200  -0.000002   0.000000
    13  H   -0.005714  -0.001884   0.001852   0.000000   0.000000
    14  H   -0.001805   0.000844   0.000058   0.000001   0.000000
    15  C   -0.018478   0.005507   0.000020  -0.000011   0.000000
    16  H    0.003486  -0.000083   0.000000  -0.000006   0.000000
    17  H   -0.009972  -0.002114   0.009578   0.000000   0.000000
    18  H   -0.002527  -0.000628  -0.001515   0.000002   0.000000
    19  C   -0.053211  -0.007480  -0.017774  -0.003100  -0.000033
    20  H    0.004355  -0.000424   0.000048  -0.000069   0.000002
    21  H   -0.002677   0.004936   0.022108   0.000059   0.000000
    22  C    0.202704  -0.184752  -0.120960   0.000036   0.000000
    23  H   -0.018050   0.007716   0.002125  -0.000001   0.000000
    24  H   -0.012614   0.009232   0.005703   0.000048   0.000000
    25  C    4.668588   0.442478   0.643431   0.000024   0.000000
    26  H    0.442478   0.734409  -0.066831   0.000003   0.000000
    27  O    0.643431  -0.066831   7.830287   0.000000   0.000000
    28  C    0.000024   0.000003   0.000000   5.315796   0.988640
    29  N    0.000000   0.000000   0.000000   0.988640   6.015953
 Mulliken charges:
               1
     1  C   -0.010076
     2  C   -0.257429
     3  C    0.232451
     4  C   -0.173898
     5  C   -0.196610
     6  C    0.202609
     7  H    0.122958
     8  H    0.130997
     9  H    0.115624
    10  N   -0.161419
    11  C   -0.310696
    12  H    0.111047
    13  H    0.142840
    14  H    0.138790
    15  C   -0.261047
    16  H    0.109007
    17  H    0.150242
    18  H    0.130288
    19  C   -0.172220
    20  H    0.110626
    21  H    0.118793
    22  C   -0.104324
    23  H    0.113276
    24  H    0.094749
    25  C    0.092284
    26  H    0.060062
    27  O   -0.298843
    28  C   -0.267401
    29  N    0.037318
 Sum of Mulliken charges =   0.00000
 Mulliken charges with hydrogens summed into heavy atoms:
               1
     1  C   -0.010076
     2  C   -0.134471
     3  C    0.232451
     4  C   -0.042901
     5  C   -0.080985
     6  C    0.202609
    10  N   -0.161419
    11  C    0.081981
    15  C    0.128491
    19  C    0.057199
    22  C    0.103701
    25  C    0.152346
    27  O   -0.298843
    28  C   -0.267401
    29  N    0.037318
 Electronic spatial extent (au):  <R**2>=           3569.6095
 Charge=              0.0000 electrons
 Dipole moment (field-independent basis, Debye):
    X=              3.3317    Y=              2.1678    Z=             -1.2066  Tot=              4.1540
 Quadrupole moment (field-independent basis, Debye-Ang):
   XX=           -131.3262   YY=            -81.1468   ZZ=            -88.5050
   XY=             -1.3614   XZ=             -4.0267   YZ=              0.2309
 Traceless Quadrupole moment (field-independent basis, Debye-Ang):
   XX=            -31.0002   YY=             19.1792   ZZ=             11.8210
   XY=             -1.3614   XZ=             -4.0267   YZ=              0.2309
 Octapole moment (field-independent basis, Debye-Ang**2):
  XXX=            168.0864  YYY=              0.0742  ZZZ=              0.9920  XYY=              8.8801
  XXY=             57.6384  XXZ=            -16.4181  XZZ=             17.3012  YZZ=             -0.7918
  YYZ=             -4.7019  XYZ=              8.7735
 Hexadecapole moment (field-independent basis, Debye-Ang**3):
 XXXX=          -4910.2996 YYYY=          -1015.5060 ZZZZ=           -326.4509 XXXY=           -131.1540
 XXXZ=            -51.9580 YYYX=            -26.6150 YYYZ=             -5.9691 ZZZX=              4.2434
 ZZZY=             -1.2415 XXYY=           -768.1672 XXZZ=           -632.0248 YYZZ=           -236.1460
 XXYZ=             12.7909 YYXZ=             -8.4516 ZZXY=             -1.7949
 N-N= 9.536194336664D+02 E-N=-3.419692149504D+03  KE= 6.472332223122D+02
 Running external command "gaunbo6 R"
         input file       "/scratch/aloke/Gau-22501.EIn"
         output file      "/scratch/aloke/Gau-22501.EOu"
         message file     "/scratch/aloke/Gau-22501.EMs"
         fchk file        "/scratch/aloke/Gau-22501.EFC"
         mat. el file     "/scratch/aloke/Gau-22501.EUF"

 Writing Wrt12E file "/scratch/aloke/Gau-22501.EUF"
 Gaussian matrix elements                                         Version   1 NLab= 7 Len12L=8 Len4L=8
 Write GAUSSIAN SCALARS               from file   501 offset           0 to matrix element file.
 Write OVERLAP                        from file   514 offset           0 to matrix element file.
 Write CORE HAMILTONIAN ALPHA         from file   515 offset           0 to matrix element file.
 Write CORE HAMILTONIAN BETA          from file   515 offset      150975 to matrix element file.
 Write KINETIC ENERGY                 from file   516 offset           0 to matrix element file.
 Write ORTHOGONAL BASIS               from file   685 offset           0 to matrix element file.
 Write DIPOLE INTEGRALS               from file   518 offset           0 to matrix element file.
 Array DIP VEL INTEGRALS               on  file    572 does not exist.
 Array R X DEL INTEGRALS               on  file    572 does not exist.
 Write ALPHA ORBITAL ENERGIES         from file     0 offset           0 to matrix element file.
 Write ALPHA MO COEFFICIENTS          from file 10524 offset           0 to matrix element file.
 Write ALPHA DENSITY MATRIX           from file     0 offset           0 to matrix element file.
 Write ALPHA SCF DENSITY MATRIX       from file 10528 offset           0 to matrix element file.
 Write ALPHA FOCK MATRIX              from file 10536 offset           0 to matrix element file.
 No 2e integrals to process.
 Perform NBO analysis...

 *********************************** NBO 6.0 ***********************************
             N A T U R A L   A T O M I C   O R B I T A L   A N D
          N A T U R A L   B O N D   O R B I T A L   A N A L Y S I S
 ************************* Aloke Das Software (101058) *************************
  (c) Copyright 1996-2016 Board of Regents of the University of Wisconsin System
      on behalf of the Theoretical Chemistry Institute.  All rights reserved.

          Cite this program as:

          NBO 6.0.  E. D. Glendening, J. K. Badenhoop, A. E. Reed,
          J. E. Carpenter, J. A. Bohmann, C. M. Morales, C. R. Landis,
          and F. Weinhold (Theoretical Chemistry Institute, University
          of Wisconsin, Madison, WI, 2013); http://nbo6.chem.wisc.edu/

       /E2PERT / : Analyze NBO Fock matrix
                   Print threshold set to 0.1
       /AONBO  / : Checkpoint the AO to NBO transformation
                   NBOs sorted by occupancy

 Filename set to /scratch/aloke/Gau-22501

 Job title:  Energy Optimisation and Frequency calculation


 NATURAL POPULATIONS:  Natural atomic orbital occupancies

  NAO Atom No lang   Type(AO)    Occupancy      Energy
 -------------------------------------------------------
   1    C  1  s      Cor( 1s)     1.99999     -10.20928
   2    C  1  s      Val( 2s)     0.92289      -0.12584
   3    C  1  s      Ryd( 3s)     0.00070       1.46506
   4    C  1  s      Ryd( 4s)     0.00012       2.19007
   5    C  1  s      Ryd( 5s)     0.00000      19.33314
   6    C  1  px     Val( 2p)     1.04890      -0.03808
   7    C  1  px     Ryd( 3p)     0.00425       1.07425
   8    C  1  px     Ryd( 4p)     0.00034       2.32084
   9    C  1  py     Val( 2p)     1.03895      -0.03521
  10    C  1  py     Ryd( 3p)     0.00346       1.09552
  11    C  1  py     Ryd( 4p)     0.00021       2.09007
  12    C  1  pz     Val( 2p)     0.99528      -0.12570
  13    C  1  pz     Ryd( 3p)     0.00182       0.72537
  14    C  1  pz     Ryd( 4p)     0.00009       1.44132
  15    C  1  dxy    Ryd( 3d)     0.00101       2.89308
  16    C  1  dxy    Ryd( 4d)     0.00068       3.86894
  17    C  1  dxz    Ryd( 3d)     0.00034       1.57781
  18    C  1  dxz    Ryd( 4d)     0.00023       3.41711
  19    C  1  dyz    Ryd( 3d)     0.00033       1.70832
  20    C  1  dyz    Ryd( 4d)     0.00024       3.40477
  21    C  1  dx2y2  Ryd( 3d)     0.00124       2.85409
  22    C  1  dx2y2  Ryd( 4d)     0.00061       4.08616
  23    C  1  dz2    Ryd( 3d)     0.00097       3.15652
  24    C  1  dz2    Ryd( 4d)     0.00006       3.72702
  25    C  1  f(0)   Ryd( 4f)     0.00042       3.30137
  26    C  1  f(c1)  Ryd( 4f)     0.00036       3.37879
  27    C  1  f(s1)  Ryd( 4f)     0.00038       3.36385
  28    C  1  f(c2)  Ryd( 4f)     0.00004       3.34980
  29    C  1  f(s2)  Ryd( 4f)     0.00007       3.37371
  30    C  1  f(c3)  Ryd( 4f)     0.00046       3.86967
  31    C  1  f(s3)  Ryd( 4f)     0.00040       3.87772

  32    C  2  s      Cor( 1s)     1.99999     -10.20617
  33    C  2  s      Val( 2s)     0.96412      -0.13945
  34    C  2  s      Ryd( 3s)     0.00061       2.39330
  35    C  2  s      Ryd( 4s)     0.00007       3.67489
  36    C  2  s      Ryd( 5s)     0.00000      16.88260
  37    C  2  px     Val( 2p)     1.04552      -0.03916
  38    C  2  px     Ryd( 3p)     0.00205       1.00406
  39    C  2  px     Ryd( 4p)     0.00011       1.99146
  40    C  2  py     Val( 2p)     1.15513      -0.07048
  41    C  2  py     Ryd( 3p)     0.00417       1.17028
  42    C  2  py     Ryd( 4p)     0.00013       2.18957
  43    C  2  pz     Val( 2p)     0.98127      -0.13316
  44    C  2  pz     Ryd( 3p)     0.00120       0.69718
  45    C  2  pz     Ryd( 4p)     0.00016       1.26619
  46    C  2  dxy    Ryd( 3d)     0.00167       2.11838
  47    C  2  dxy    Ryd( 4d)     0.00039       4.06508
  48    C  2  dxz    Ryd( 3d)     0.00036       1.52957
  49    C  2  dxz    Ryd( 4d)     0.00014       3.21408
  50    C  2  dyz    Ryd( 3d)     0.00049       1.50694
  51    C  2  dyz    Ryd( 4d)     0.00006       2.99372
  52    C  2  dx2y2  Ryd( 3d)     0.00112       2.22473
  53    C  2  dx2y2  Ryd( 4d)     0.00064       4.02404
  54    C  2  dz2    Ryd( 3d)     0.00128       2.01312
  55    C  2  dz2    Ryd( 4d)     0.00002       3.46656
  56    C  2  f(0)   Ryd( 4f)     0.00045       3.21216
  57    C  2  f(c1)  Ryd( 4f)     0.00031       3.44131
  58    C  2  f(s1)  Ryd( 4f)     0.00040       3.28102
  59    C  2  f(c2)  Ryd( 4f)     0.00009       3.31125
  60    C  2  f(s2)  Ryd( 4f)     0.00005       3.30665
  61    C  2  f(c3)  Ryd( 4f)     0.00041       3.83657
  62    C  2  f(s3)  Ryd( 4f)     0.00043       3.82656

  63    C  3  s      Cor( 1s)     1.99999     -10.23760
  64    C  3  s      Val( 2s)     0.92640      -0.13710
  65    C  3  s      Ryd( 3s)     0.00092       1.40078
  66    C  3  s      Ryd( 4s)     0.00023       2.73012
  67    C  3  s      Ryd( 5s)     0.00000      18.02085
  68    C  3  px     Val( 2p)     1.02546      -0.06116
  69    C  3  px     Ryd( 3p)     0.00633       1.14063
  70    C  3  px     Ryd( 4p)     0.00036       2.56383
  71    C  3  py     Val( 2p)     1.08469      -0.05851
  72    C  3  py     Ryd( 3p)     0.00268       1.00834
  73    C  3  py     Ryd( 4p)     0.00035       1.88333
  74    C  3  pz     Val( 2p)     1.08092      -0.14301
  75    C  3  pz     Ryd( 3p)     0.00139       0.68061
  76    C  3  pz     Ryd( 4p)     0.00011       1.34977
  77    C  3  dxy    Ryd( 3d)     0.00087       2.93063
  78    C  3  dxy    Ryd( 4d)     0.00049       4.02465
  79    C  3  dxz    Ryd( 3d)     0.00028       1.76343
  80    C  3  dxz    Ryd( 4d)     0.00011       3.14152
  81    C  3  dyz    Ryd( 3d)     0.00036       1.89636
  82    C  3  dyz    Ryd( 4d)     0.00012       3.18908
  83    C  3  dx2y2  Ryd( 3d)     0.00089       3.06791
  84    C  3  dx2y2  Ryd( 4d)     0.00058       4.11585
  85    C  3  dz2    Ryd( 3d)     0.00098       3.07129
  86    C  3  dz2    Ryd( 4d)     0.00003       3.49267
  87    C  3  f(0)   Ryd( 4f)     0.00042       3.31894
  88    C  3  f(c1)  Ryd( 4f)     0.00034       3.36288
  89    C  3  f(s1)  Ryd( 4f)     0.00032       3.39340
  90    C  3  f(c2)  Ryd( 4f)     0.00008       3.38065
  91    C  3  f(s2)  Ryd( 4f)     0.00008       3.36989
  92    C  3  f(c3)  Ryd( 4f)     0.00031       3.92484
  93    C  3  f(s3)  Ryd( 4f)     0.00033       3.91406

  94    C  4  s      Cor( 1s)     1.99999     -10.20773
  95    C  4  s      Val( 2s)     0.96797      -0.14379
  96    C  4  s      Ryd( 3s)     0.00067       1.66962
  97    C  4  s      Ryd( 4s)     0.00003       2.69439
  98    C  4  s      Ryd( 5s)     0.00000      20.35630
  99    C  4  px     Val( 2p)     1.10664      -0.05483
 100    C  4  px     Ryd( 3p)     0.00305       1.07213
 101    C  4  px     Ryd( 4p)     0.00011       1.91742
 102    C  4  py     Val( 2p)     1.09460      -0.05754
 103    C  4  py     Ryd( 3p)     0.00363       1.02833
 104    C  4  py     Ryd( 4p)     0.00014       2.02861
 105    C  4  pz     Val( 2p)     0.98072      -0.13308
 106    C  4  pz     Ryd( 3p)     0.00145       0.67542
 107    C  4  pz     Ryd( 4p)     0.00016       1.25892
 108    C  4  dxy    Ryd( 4d)     0.00077       2.19349
 109    C  4  dxy    Ryd( 3d)     0.00077       3.91084
 110    C  4  dxz    Ryd( 3d)     0.00033       1.56704
 111    C  4  dxz    Ryd( 4d)     0.00013       3.00705
 112    C  4  dyz    Ryd( 3d)     0.00050       1.58454
 113    C  4  dyz    Ryd( 4d)     0.00008       3.04910
 114    C  4  dx2y2  Ryd( 3d)     0.00167       2.10099
 115    C  4  dx2y2  Ryd( 4d)     0.00024       4.00382
 116    C  4  dz2    Ryd( 3d)     0.00123       1.93686
 117    C  4  dz2    Ryd( 4d)     0.00002       3.37065
 118    C  4  f(0)   Ryd( 4f)     0.00043       3.23246
 119    C  4  f(c1)  Ryd( 4f)     0.00035       3.37281
 120    C  4  f(s1)  Ryd( 4f)     0.00035       3.33066
 121    C  4  f(c2)  Ryd( 4f)     0.00004       3.31567
 122    C  4  f(s2)  Ryd( 4f)     0.00011       3.31198
 123    C  4  f(c3)  Ryd( 4f)     0.00040       3.80544
 124    C  4  f(s3)  Ryd( 4f)     0.00037       3.82523

 125    C  5  s      Cor( 1s)     1.99999     -10.20106
 126    C  5  s      Val( 2s)     0.97348      -0.14725
 127    C  5  s      Ryd( 3s)     0.00088       1.73665
 128    C  5  s      Ryd( 4s)     0.00007       1.73726
 129    C  5  s      Ryd( 5s)     0.00000      20.63181
 130    C  5  px     Val( 2p)     1.05798      -0.04263
 131    C  5  px     Ryd( 3p)     0.00229       0.97468
 132    C  5  px     Ryd( 4p)     0.00017       1.95924
 133    C  5  py     Val( 2p)     1.15501      -0.06852
 134    C  5  py     Ryd( 3p)     0.00336       1.13530
 135    C  5  py     Ryd( 4p)     0.00030       1.97284
 136    C  5  pz     Val( 2p)     1.03153      -0.13542
 137    C  5  pz     Ryd( 3p)     0.00190       0.68335
 138    C  5  pz     Ryd( 4p)     0.00019       1.27816
 139    C  5  dxy    Ryd( 3d)     0.00181       2.13268
 140    C  5  dxy    Ryd( 4d)     0.00038       3.98173
 141    C  5  dxz    Ryd( 3d)     0.00025       1.55768
 142    C  5  dxz    Ryd( 4d)     0.00017       3.22388
 143    C  5  dyz    Ryd( 3d)     0.00051       1.57099
 144    C  5  dyz    Ryd( 4d)     0.00005       2.98956
 145    C  5  dx2y2  Ryd( 3d)     0.00094       2.30632
 146    C  5  dx2y2  Ryd( 4d)     0.00053       3.94881
 147    C  5  dz2    Ryd( 3d)     0.00124       1.96904
 148    C  5  dz2    Ryd( 4d)     0.00002       3.44092
 149    C  5  f(0)   Ryd( 4f)     0.00046       3.22997
 150    C  5  f(c1)  Ryd( 4f)     0.00031       3.44198
 151    C  5  f(s1)  Ryd( 4f)     0.00038       3.29029
 152    C  5  f(c2)  Ryd( 4f)     0.00008       3.31687
 153    C  5  f(s2)  Ryd( 4f)     0.00006       3.31780
 154    C  5  f(c3)  Ryd( 4f)     0.00040       3.83186
 155    C  5  f(s3)  Ryd( 4f)     0.00039       3.82937

 156    C  6  s      Cor( 1s)     1.99999     -10.23662
 157    C  6  s      Val( 2s)     0.87668      -0.11429
 158    C  6  s      Ryd( 3s)     0.00106       1.33951
 159    C  6  s      Ryd( 4s)     0.00016       1.78123
 160    C  6  s      Ryd( 5s)     0.00000      20.72902
 161    C  6  px     Val( 2p)     0.90451      -0.01955
 162    C  6  px     Ryd( 3p)     0.00461       1.10524
 163    C  6  px     Ryd( 4p)     0.00048       1.95611
 164    C  6  py     Val( 2p)     1.04703      -0.04023
 165    C  6  py     Ryd( 3p)     0.00300       0.93784
 166    C  6  py     Ryd( 4p)     0.00042       2.08358
 167    C  6  pz     Val( 2p)     0.98465      -0.13175
 168    C  6  pz     Ryd( 3p)     0.00292       0.69450
 169    C  6  pz     Ryd( 4p)     0.00018       1.46436
 170    C  6  dxy    Ryd( 3d)     0.00113       2.99912
 171    C  6  dxy    Ryd( 4d)     0.00083       4.07239
 172    C  6  dxz    Ryd( 3d)     0.00050       1.78202
 173    C  6  dxz    Ryd( 4d)     0.00031       3.35168
 174    C  6  dyz    Ryd( 3d)     0.00030       1.75955
 175    C  6  dyz    Ryd( 4d)     0.00021       3.34441
 176    C  6  dx2y2  Ryd( 4d)     0.00097       3.10397
 177    C  6  dx2y2  Ryd( 3d)     0.00106       4.35715
 178    C  6  dz2    Ryd( 3d)     0.00064       2.98542
 179    C  6  dz2    Ryd( 4d)     0.00012       3.62958
 180    C  6  f(0)   Ryd( 4f)     0.00038       3.35180
 181    C  6  f(c1)  Ryd( 4f)     0.00027       3.42921
 182    C  6  f(s1)  Ryd( 4f)     0.00030       3.39517
 183    C  6  f(c2)  Ryd( 4f)     0.00007       3.41451
 184    C  6  f(s2)  Ryd( 4f)     0.00009       3.40058
 185    C  6  f(c3)  Ryd( 4f)     0.00036       3.89299
 186    C  6  f(s3)  Ryd( 4f)     0.00038       3.89127

 187    H  7  s      Val( 1s)     0.77720       0.02823
 188    H  7  s      Ryd( 2s)     0.00048       0.92605
 189    H  7  s      Ryd( 3s)     0.00008       1.77895
 190    H  7  px     Ryd( 2p)     0.00011       2.61034
 191    H  7  py     Ryd( 2p)     0.00074       2.81665
 192    H  7  pz     Ryd( 2p)     0.00015       2.13418

 193    H  8  s      Val( 1s)     0.77214       0.03009
 194    H  8  s      Ryd( 2s)     0.00029       0.76181
 195    H  8  s      Ryd( 3s)     0.00009       1.92723
 196    H  8  px     Ryd( 2p)     0.00039       2.70229
 197    H  8  py     Ryd( 2p)     0.00039       2.69730
 198    H  8  pz     Ryd( 2p)     0.00015       2.15107

 199    H  9  s      Val( 1s)     0.77983       0.02767
 200    H  9  s      Ryd( 2s)     0.00087       0.75948
 201    H  9  s      Ryd( 3s)     0.00008       1.88411
 202    H  9  px     Ryd( 2p)     0.00011       2.61236
 203    H  9  py     Ryd( 2p)     0.00076       2.83256
 204    H  9  pz     Ryd( 2p)     0.00017       2.14274

 205    N 10  s      Cor( 1s)     1.99999     -14.35011
 206    N 10  s      Val( 2s)     1.25310      -0.43601
 207    N 10  s      Ryd( 3s)     0.00128       1.32826
 208    N 10  s      Ryd( 4s)     0.00004       6.03962
 209    N 10  s      Ryd( 5s)     0.00000      25.37500
 210    N 10  px     Val( 2p)     1.31950      -0.20296
 211    N 10  px     Ryd( 3p)     0.00403       0.76997
 212    N 10  px     Ryd( 4p)     0.00014       3.12141
 213    N 10  py     Val( 2p)     1.53566      -0.23039
 214    N 10  py     Ryd( 3p)     0.00764       0.90509
 215    N 10  py     Ryd( 4p)     0.00013       2.88367
 216    N 10  pz     Val( 2p)     1.28854      -0.20798
 217    N 10  pz     Ryd( 3p)     0.00364       0.76497
 218    N 10  pz     Ryd( 4p)     0.00009       2.86586
 219    N 10  dxy    Ryd( 3d)     0.00102       2.52211
 220    N 10  dxy    Ryd( 4d)     0.00020       5.09789
 221    N 10  dxz    Ryd( 3d)     0.00048       2.05872
 222    N 10  dxz    Ryd( 4d)     0.00018       4.96659
 223    N 10  dyz    Ryd( 3d)     0.00161       2.06479
 224    N 10  dyz    Ryd( 4d)     0.00011       5.04335
 225    N 10  dx2y2  Ryd( 3d)     0.00257       2.30175
 226    N 10  dx2y2  Ryd( 4d)     0.00008       5.22855
 227    N 10  dz2    Ryd( 3d)     0.00192       2.09385
 228    N 10  dz2    Ryd( 4d)     0.00013       5.13934
 229    N 10  f(0)   Ryd( 4f)     0.00009       4.76649
 230    N 10  f(c1)  Ryd( 4f)     0.00013       4.83260
 231    N 10  f(s1)  Ryd( 4f)     0.00006       4.71866
 232    N 10  f(c2)  Ryd( 4f)     0.00010       4.69159
 233    N 10  f(s2)  Ryd( 4f)     0.00011       4.56292
 234    N 10  f(c3)  Ryd( 4f)     0.00016       4.73293
 235    N 10  f(s3)  Ryd( 4f)     0.00009       4.78446

 236    C 11  s      Cor( 1s)     1.99999     -10.21485
 237    C 11  s      Val( 2s)     1.08313      -0.23155
 238    C 11  s      Ryd( 3s)     0.00087       1.32498
 239    C 11  s      Ryd( 4s)     0.00003       1.71293
 240    C 11  s      Ryd( 5s)     0.00000      21.89708
 241    C 11  px     Val( 2p)     1.18658      -0.12863
 242    C 11  px     Ryd( 3p)     0.00181       0.74486
 243    C 11  px     Ryd( 4p)     0.00016       1.59465
 244    C 11  py     Val( 2p)     1.02655      -0.10098
 245    C 11  py     Ryd( 3p)     0.00148       0.64218
 246    C 11  py     Ryd( 4p)     0.00027       1.51975
 247    C 11  pz     Val( 2p)     1.09482      -0.11639
 248    C 11  pz     Ryd( 3p)     0.00193       0.65546
 249    C 11  pz     Ryd( 4p)     0.00008       1.51635
 250    C 11  dxy    Ryd( 3d)     0.00052       2.13942
 251    C 11  dxy    Ryd( 4d)     0.00006       2.65785
 252    C 11  dxz    Ryd( 3d)     0.00074       2.06053
 253    C 11  dxz    Ryd( 4d)     0.00006       2.64652
 254    C 11  dyz    Ryd( 3d)     0.00086       2.66956
 255    C 11  dyz    Ryd( 4d)     0.00010       2.87354
 256    C 11  dx2y2  Ryd( 3d)     0.00157       2.15256
 257    C 11  dx2y2  Ryd( 4d)     0.00008       3.06414
 258    C 11  dz2    Ryd( 3d)     0.00114       1.99363
 259    C 11  dz2    Ryd( 4d)     0.00007       2.88608
 260    C 11  f(0)   Ryd( 4f)     0.00015       3.49245
 261    C 11  f(c1)  Ryd( 4f)     0.00018       3.61435
 262    C 11  f(s1)  Ryd( 4f)     0.00007       3.44321
 263    C 11  f(c2)  Ryd( 4f)     0.00018       3.47645
 264    C 11  f(s2)  Ryd( 4f)     0.00003       3.39664
 265    C 11  f(c3)  Ryd( 4f)     0.00025       3.66953
 266    C 11  f(s3)  Ryd( 4f)     0.00003       3.35315

 267    H 12  s      Val( 1s)     0.82602      -0.00378
 268    H 12  s      Ryd( 2s)     0.00264       0.55144
 269    H 12  s      Ryd( 3s)     0.00004       2.03258
 270    H 12  px     Ryd( 2p)     0.00012       2.16841
 271    H 12  py     Ryd( 2p)     0.00066       2.73135
 272    H 12  pz     Ryd( 2p)     0.00016       2.20978

 273    H 13  s      Val( 1s)     0.79190       0.01365
 274    H 13  s      Ryd( 2s)     0.00073       0.71048
 275    H 13  s      Ryd( 3s)     0.00005       1.85200
 276    H 13  px     Ryd( 2p)     0.00086       2.75565
 277    H 13  py     Ryd( 2p)     0.00008       2.15464
 278    H 13  pz     Ryd( 2p)     0.00008       2.15436

 279    H 14  s      Val( 1s)     0.79378       0.01107
 280    H 14  s      Ryd( 2s)     0.00055       0.51685
 281    H 14  s      Ryd( 3s)     0.00004       2.00845
 282    H 14  px     Ryd( 2p)     0.00016       2.21839
 283    H 14  py     Ryd( 2p)     0.00009       2.17372
 284    H 14  pz     Ryd( 2p)     0.00068       2.75387

 285    C 15  s      Cor( 1s)     1.99999     -10.20761
 286    C 15  s      Val( 2s)     1.08837      -0.22614
 287    C 15  s      Ryd( 3s)     0.00104       1.27871
 288    C 15  s      Ryd( 4s)     0.00004       2.14881
 289    C 15  s      Ryd( 5s)     0.00000      21.58563
 290    C 15  px     Val( 2p)     1.17268      -0.11905
 291    C 15  px     Ryd( 3p)     0.00160       0.68810
 292    C 15  px     Ryd( 4p)     0.00009       1.52763
 293    C 15  py     Val( 2p)     1.19744      -0.11999
 294    C 15  py     Ryd( 3p)     0.00218       0.70520
 295    C 15  py     Ryd( 4p)     0.00023       1.61105
 296    C 15  pz     Val( 2p)     0.92702      -0.08509
 297    C 15  pz     Ryd( 3p)     0.00116       0.62339
 298    C 15  pz     Ryd( 4p)     0.00032       1.52071
 299    C 15  dxy    Ryd( 3d)     0.00077       1.90126
 300    C 15  dxy    Ryd( 4d)     0.00006       2.68062
 301    C 15  dxz    Ryd( 3d)     0.00060       2.34185
 302    C 15  dxz    Ryd( 4d)     0.00008       2.77670
 303    C 15  dyz    Ryd( 3d)     0.00124       1.96336
 304    C 15  dyz    Ryd( 4d)     0.00010       3.00215
 305    C 15  dx2y2  Ryd( 3d)     0.00158       1.98445
 306    C 15  dx2y2  Ryd( 4d)     0.00005       3.02652
 307    C 15  dz2    Ryd( 3d)     0.00079       2.56540
 308    C 15  dz2    Ryd( 4d)     0.00012       2.96434
 309    C 15  f(0)   Ryd( 4f)     0.00018       3.63398
 310    C 15  f(c1)  Ryd( 4f)     0.00022       3.63072
 311    C 15  f(s1)  Ryd( 4f)     0.00004       3.42014
 312    C 15  f(c2)  Ryd( 4f)     0.00020       3.53200
 313    C 15  f(s2)  Ryd( 4f)     0.00001       3.50929
 314    C 15  f(c3)  Ryd( 4f)     0.00025       3.56158
 315    C 15  f(s3)  Ryd( 4f)     0.00002       3.22000

 316    H 16  s      Val( 1s)     0.82358       0.00452
 317    H 16  s      Ryd( 2s)     0.00243       0.58985
 318    H 16  s      Ryd( 3s)     0.00004       1.96354
 319    H 16  px     Ryd( 2p)     0.00012       2.17344
 320    H 16  py     Ryd( 2p)     0.00056       2.60441
 321    H 16  pz     Ryd( 2p)     0.00025       2.37419

 322    H 17  s      Val( 1s)     0.78219       0.03105
 323    H 17  s      Ryd( 2s)     0.00089       0.67521
 324    H 17  s      Ryd( 3s)     0.00004       1.89752
 325    H 17  px     Ryd( 2p)     0.00090       2.77717
 326    H 17  py     Ryd( 2p)     0.00007       2.10218
 327    H 17  pz     Ryd( 2p)     0.00009       2.21691

 328    H 18  s      Val( 1s)     0.79249       0.02360
 329    H 18  s      Ryd( 2s)     0.00046       0.77917
 330    H 18  s      Ryd( 3s)     0.00005       1.85889
 331    H 18  px     Ryd( 2p)     0.00014       2.23285
 332    H 18  py     Ryd( 2p)     0.00045       2.50892
 333    H 18  pz     Ryd( 2p)     0.00036       2.56279

 334    C 19  s      Cor( 1s)     1.99999     -10.19738
 335    C 19  s      Val( 2s)     1.04723      -0.20927
 336    C 19  s      Ryd( 3s)     0.00075       1.68980
 337    C 19  s      Ryd( 4s)     0.00004       2.33086
 338    C 19  s      Ryd( 5s)     0.00000      20.75526
 339    C 19  px     Val( 2p)     1.09694      -0.09379
 340    C 19  px     Ryd( 3p)     0.00325       0.87703
 341    C 19  px     Ryd( 4p)     0.00019       1.70909
 342    C 19  py     Val( 2p)     1.12746      -0.10164
 343    C 19  py     Ryd( 3p)     0.00159       0.84560
 344    C 19  py     Ryd( 4p)     0.00030       1.76075
 345    C 19  pz     Val( 2p)     1.11501      -0.10428
 346    C 19  pz     Ryd( 3p)     0.00085       0.67807
 347    C 19  pz     Ryd( 4p)     0.00015       1.53101
 348    C 19  dxy    Ryd( 3d)     0.00155       2.35936
 349    C 19  dxy    Ryd( 4d)     0.00014       3.82498
 350    C 19  dxz    Ryd( 3d)     0.00125       2.06720
 351    C 19  dxz    Ryd( 4d)     0.00010       3.64671
 352    C 19  dyz    Ryd( 3d)     0.00022       1.72614
 353    C 19  dyz    Ryd( 4d)     0.00013       2.95457
 354    C 19  dx2y2  Ryd( 4d)     0.00029       2.04713
 355    C 19  dx2y2  Ryd( 3d)     0.00030       3.25388
 356    C 19  dz2    Ryd( 3d)     0.00103       2.04784
 357    C 19  dz2    Ryd( 4d)     0.00016       3.48997
 358    C 19  f(0)   Ryd( 4f)     0.00001       3.42102
 359    C 19  f(c1)  Ryd( 4f)     0.00047       3.80914
 360    C 19  f(s1)  Ryd( 4f)     0.00002       3.46804
 361    C 19  f(c2)  Ryd( 4f)     0.00004       3.44331
 362    C 19  f(s2)  Ryd( 4f)     0.00005       3.50043
 363    C 19  f(c3)  Ryd( 4f)     0.00029       3.76425
 364    C 19  f(s3)  Ryd( 4f)     0.00008       3.51277

 365    H 20  s      Val( 1s)     0.78496       0.02236
 366    H 20  s      Ryd( 2s)     0.00050       0.88492
 367    H 20  s      Ryd( 3s)     0.00003       1.77868
 368    H 20  px     Ryd( 2p)     0.00026       2.47700
 369    H 20  py     Ryd( 2p)     0.00072       2.80677
 370    H 20  pz     Ryd( 2p)     0.00010       2.28964

 371    H 21  s      Val( 1s)     0.77037       0.03020
 372    H 21  s      Ryd( 2s)     0.00171       0.73675
 373    H 21  s      Ryd( 3s)     0.00003       1.98579
 374    H 21  px     Ryd( 2p)     0.00039       2.51930
 375    H 21  py     Ryd( 2p)     0.00010       2.32847
 376    H 21  pz     Ryd( 2p)     0.00061       2.78182

 377    C 22  s      Cor( 1s)     1.99999     -10.19224
 378    C 22  s      Val( 2s)     1.09069      -0.23423
 379    C 22  s      Ryd( 3s)     0.00085       1.10983
 380    C 22  s      Ryd( 4s)     0.00002       4.07441
 381    C 22  s      Ryd( 5s)     0.00001      19.07084
 382    C 22  px     Val( 2p)     1.08778      -0.10253
 383    C 22  px     Ryd( 3p)     0.00203       0.76374
 384    C 22  px     Ryd( 4p)     0.00010       1.53920
 385    C 22  py     Val( 2p)     1.17892      -0.11964
 386    C 22  py     Ryd( 3p)     0.00113       0.86548
 387    C 22  py     Ryd( 4p)     0.00031       1.62260
 388    C 22  pz     Val( 2p)     1.11941      -0.10330
 389    C 22  pz     Ryd( 3p)     0.00164       0.77496
 390    C 22  pz     Ryd( 4p)     0.00019       1.49887
 391    C 22  dxy    Ryd( 3d)     0.00150       1.94607
 392    C 22  dxy    Ryd( 4d)     0.00006       3.43980
 393    C 22  dxz    Ryd( 3d)     0.00111       2.05070
 394    C 22  dxz    Ryd( 4d)     0.00017       3.64572
 395    C 22  dyz    Ryd( 3d)     0.00034       1.73414
 396    C 22  dyz    Ryd( 4d)     0.00008       2.97933
 397    C 22  dx2y2  Ryd( 3d)     0.00063       1.83461
 398    C 22  dx2y2  Ryd( 4d)     0.00012       3.24178
 399    C 22  dz2    Ryd( 3d)     0.00141       1.90860
 400    C 22  dz2    Ryd( 4d)     0.00016       3.41854
 401    C 22  f(0)   Ryd( 4f)     0.00002       3.42912
 402    C 22  f(c1)  Ryd( 4f)     0.00059       3.68228
 403    C 22  f(s1)  Ryd( 4f)     0.00008       3.45740
 404    C 22  f(c2)  Ryd( 4f)     0.00008       3.35758
 405    C 22  f(s2)  Ryd( 4f)     0.00003       3.46836
 406    C 22  f(c3)  Ryd( 4f)     0.00012       3.52585
 407    C 22  f(s3)  Ryd( 4f)     0.00025       3.51928

 408    H 23  s      Val( 1s)     0.76464       0.01255
 409    H 23  s      Ryd( 2s)     0.00057       0.70924
 410    H 23  s      Ryd( 3s)     0.00003       1.87032
 411    H 23  px     Ryd( 2p)     0.00017       2.37487
 412    H 23  py     Ryd( 2p)     0.00080       2.75942
 413    H 23  pz     Ryd( 2p)     0.00009       2.27670

 414    H 24  s      Val( 1s)     0.79013       0.01286
 415    H 24  s      Ryd( 2s)     0.00087       0.53835
 416    H 24  s      Ryd( 3s)     0.00003       2.08515
 417    H 24  px     Ryd( 2p)     0.00028       2.46804
 418    H 24  py     Ryd( 2p)     0.00009       2.25488
 419    H 24  pz     Ryd( 2p)     0.00066       2.74684

 420    C 25  s      Cor( 1s)     1.99999     -10.26443
 421    C 25  s      Val( 2s)     0.95786      -0.18318
 422    C 25  s      Ryd( 3s)     0.00948       1.22335
 423    C 25  s      Ryd( 4s)     0.00009       1.85427
 424    C 25  s      Ryd( 5s)     0.00001      21.88397
 425    C 25  px     Val( 2p)     0.84091      -0.04307
 426    C 25  px     Ryd( 3p)     0.00750       0.99982
 427    C 25  px     Ryd( 4p)     0.00022       1.22143
 428    C 25  py     Val( 2p)     0.84182      -0.09350
 429    C 25  py     Ryd( 3p)     0.00111       1.07571
 430    C 25  py     Ryd( 4p)     0.00019       1.04128
 431    C 25  pz     Val( 2p)     0.87784      -0.03964
 432    C 25  pz     Ryd( 3p)     0.00748       1.12707
 433    C 25  pz     Ryd( 4p)     0.00019       1.20360
 434    C 25  dxy    Ryd( 3d)     0.00109       2.98991
 435    C 25  dxy    Ryd( 4d)     0.00021       2.32914
 436    C 25  dxz    Ryd( 3d)     0.00054       2.95869
 437    C 25  dxz    Ryd( 4d)     0.00047       2.42003
 438    C 25  dyz    Ryd( 3d)     0.00124       2.80105
 439    C 25  dyz    Ryd( 4d)     0.00015       2.21373
 440    C 25  dx2y2  Ryd( 3d)     0.00061       2.74645
 441    C 25  dx2y2  Ryd( 4d)     0.00011       2.23877
 442    C 25  dz2    Ryd( 3d)     0.00141       2.94223
 443    C 25  dz2    Ryd( 4d)     0.00028       2.19487
 444    C 25  f(0)   Ryd( 4f)     0.00006       3.39760
 445    C 25  f(c1)  Ryd( 4f)     0.00024       3.54518
 446    C 25  f(s1)  Ryd( 4f)     0.00019       3.42010
 447    C 25  f(c2)  Ryd( 4f)     0.00017       3.44212
 448    C 25  f(s2)  Ryd( 4f)     0.00012       3.47159
 449    C 25  f(c3)  Ryd( 4f)     0.00005       3.37207
 450    C 25  f(s3)  Ryd( 4f)     0.00023       3.30920

 451    H 26  s      Val( 1s)     0.89140      -0.02377
 452    H 26  s      Ryd( 2s)     0.00324       0.48328
 453    H 26  s      Ryd( 3s)     0.00013       2.17773
 454    H 26  px     Ryd( 2p)     0.00022       2.31641
 455    H 26  py     Ryd( 2p)     0.00040       2.38190
 456    H 26  pz     Ryd( 2p)     0.00059       2.60893

 457    O 27  s      Cor( 1s)     1.99999     -19.12259
 458    O 27  s      Val( 2s)     1.70136      -0.68451
 459    O 27  s      Ryd( 3s)     0.00054       1.51787
 460    O 27  s      Ryd( 4s)     0.00002       4.93761
 461    O 27  s      Ryd( 5s)     0.00000      41.33377
 462    O 27  px     Val( 2p)     1.64350      -0.27420
 463    O 27  px     Ryd( 3p)     0.00192       0.66957
 464    O 27  px     Ryd( 4p)     0.00011       3.28703
 465    O 27  py     Val( 2p)     1.59212      -0.26332
 466    O 27  py     Ryd( 3p)     0.00226       0.69823
 467    O 27  py     Ryd( 4p)     0.00002       3.03542
 468    O 27  pz     Val( 2p)     1.59376      -0.27878
 469    O 27  pz     Ryd( 3p)     0.00147       0.65619
 470    O 27  pz     Ryd( 4p)     0.00011       3.38901
 471    O 27  dxy    Ryd( 3d)     0.00183       1.73561
 472    O 27  dxy    Ryd( 4d)     0.00001       6.48823
 473    O 27  dxz    Ryd( 3d)     0.00710       2.05773
 474    O 27  dxz    Ryd( 4d)     0.00000       6.64797
 475    O 27  dyz    Ryd( 3d)     0.00261       1.79957
 476    O 27  dyz    Ryd( 4d)     0.00002       6.50063
 477    O 27  dx2y2  Ryd( 3d)     0.00213       1.74657
 478    O 27  dx2y2  Ryd( 4d)     0.00001       6.45814
 479    O 27  dz2    Ryd( 3d)     0.00487       1.93136
 480    O 27  dz2    Ryd( 4d)     0.00003       6.58319
 481    O 27  f(0)   Ryd( 4f)     0.00010       5.78130
 482    O 27  f(c1)  Ryd( 4f)     0.00012       5.97286
 483    O 27  f(s1)  Ryd( 4f)     0.00004       5.58261
 484    O 27  f(c2)  Ryd( 4f)     0.00008       5.69082
 485    O 27  f(s2)  Ryd( 4f)     0.00011       5.68157
 486    O 27  f(c3)  Ryd( 4f)     0.00002       5.37784
 487    O 27  f(s3)  Ryd( 4f)     0.00003       5.38594

 488    C 28  s      Cor( 1s)     1.99998     -10.21833
 489    C 28  s      Val( 2s)     0.88692      -0.09987
 490    C 28  s      Ryd( 3s)     0.00846       2.41819
 491    C 28  s      Ryd( 4s)     0.00004       5.08497
 492    C 28  s      Ryd( 5s)     0.00000      12.70939
 493    C 28  px     Val( 2p)     0.97099       0.09491
 494    C 28  px     Ryd( 3p)     0.01537       0.99921
 495    C 28  px     Ryd( 4p)     0.00050       2.53345
 496    C 28  py     Val( 2p)     0.91598      -0.08451
 497    C 28  py     Ryd( 3p)     0.00325       0.85919
 498    C 28  py     Ryd( 4p)     0.00007       1.26203
 499    C 28  pz     Val( 2p)     0.91512      -0.10166
 500    C 28  pz     Ryd( 3p)     0.00049       0.75421
 501    C 28  pz     Ryd( 4p)     0.00006       1.06106
 502    C 28  dxy    Ryd( 3d)     0.00069       3.58346
 503    C 28  dxy    Ryd( 4d)     0.00014       2.48640
 504    C 28  dxz    Ryd( 3d)     0.00081       3.38912
 505    C 28  dxz    Ryd( 4d)     0.00005       1.77800
 506    C 28  dyz    Ryd( 3d)     0.00006       2.93044
 507    C 28  dyz    Ryd( 4d)     0.00006       1.10004
 508    C 28  dx2y2  Ryd( 3d)     0.00070       3.67235
 509    C 28  dx2y2  Ryd( 4d)     0.00017       3.11103
 510    C 28  dz2    Ryd( 3d)     0.00023       3.21349
 511    C 28  dz2    Ryd( 4d)     0.00006       2.34408
 512    C 28  f(0)   Ryd( 4f)     0.00025       3.00142
 513    C 28  f(c1)  Ryd( 4f)     0.00036       3.37781
 514    C 28  f(s1)  Ryd( 4f)     0.00007       2.79108
 515    C 28  f(c2)  Ryd( 4f)     0.00029       3.18547
 516    C 28  f(s2)  Ryd( 4f)     0.00010       3.09911
 517    C 28  f(c3)  Ryd( 4f)     0.00064       3.61202
 518    C 28  f(s3)  Ryd( 4f)     0.00068       3.60215

 519    N 29  s      Cor( 1s)     1.99999     -14.31666
 520    N 29  s      Val( 2s)     1.58542      -0.37432
 521    N 29  s      Ryd( 3s)     0.00190       2.27322
 522    N 29  s      Ryd( 4s)     0.00002       2.50642
 523    N 29  s      Ryd( 5s)     0.00000      29.28329
 524    N 29  px     Val( 2p)     1.48964      -0.14541
 525    N 29  px     Ryd( 3p)     0.00196       0.53765
 526    N 29  px     Ryd( 4p)     0.00009       4.48517
 527    N 29  py     Val( 2p)     1.11358      -0.14845
 528    N 29  py     Ryd( 3p)     0.00034       0.60568
 529    N 29  py     Ryd( 4p)     0.00001       2.75353
 530    N 29  pz     Val( 2p)     1.10752      -0.15076
 531    N 29  pz     Ryd( 3p)     0.00063       0.59111
 532    N 29  pz     Ryd( 4p)     0.00000       2.49280
 533    N 29  dxy    Ryd( 3d)     0.00583       1.72465
 534    N 29  dxy    Ryd( 4d)     0.00001       5.08851
 535    N 29  dxz    Ryd( 3d)     0.00469       1.53294
 536    N 29  dxz    Ryd( 4d)     0.00001       4.93865
 537    N 29  dyz    Ryd( 3d)     0.00036       1.34532
 538    N 29  dyz    Ryd( 4d)     0.00000       4.37573
 539    N 29  dx2y2  Ryd( 3d)     0.00737       1.96224
 540    N 29  dx2y2  Ryd( 4d)     0.00001       5.10879
 541    N 29  dz2    Ryd( 3d)     0.00271       1.61176
 542    N 29  dz2    Ryd( 4d)     0.00000       4.60286
 543    N 29  f(0)   Ryd( 4f)     0.00010       4.24121
 544    N 29  f(c1)  Ryd( 4f)     0.00008       4.77218
 545    N 29  f(s1)  Ryd( 4f)     0.00002       4.05537
 546    N 29  f(c2)  Ryd( 4f)     0.00013       4.42515
 547    N 29  f(s2)  Ryd( 4f)     0.00005       4.39466
 548    N 29  f(c3)  Ryd( 4f)     0.00019       4.89112
 549    N 29  f(s3)  Ryd( 4f)     0.00018       4.90341

     Population inversion found on atom  C  4
     Population inversion found on atom  C  6
     Population inversion found on atom  C 19
     Population inversion found on atom  C 25
     Population inversion found on atom  C 28


 Summary of Natural Population Analysis:

                                     Natural Population
             Natural    ---------------------------------------------
[...]
  218.  0.00011     2.41221  396.   RY ( 2) H 20
  219.  0.00011     1.47120  292.   RY ( 6) C 11
  220.  0.00011     2.35680  432.   RY ( 2) H 23
  221.  0.00011     1.94916  413.   RY ( 9) C 22
  222.  0.00011     2.12331  231.   RY (12) C  6
  223.  0.00011     2.77849  269.   RY ( 9) N 10
  224.  0.00010     2.31294  123.   RY ( 8) C  2
  225.  0.00010     2.11240  319.   RY ( 2) H 13
  226.  0.00010     2.83615  270.   RY (10) N 10
  227.  0.00010     2.53618  152.   RY (11) C  3
  228.  0.00010     1.55839  293.   RY ( 7) C 11
  229.  0.00010     2.32783  447.   RY ( 7) C 25
  230.  0.00009     2.42854  475.   RY ( 4) O 27
  231.  0.00009     2.08398  324.   RY ( 2) H 14
  232.  0.00009     2.20645  355.   RY ( 2) H 16
  233.  0.00009     2.72593  124.   RY ( 9) C  2
  234.  0.00009     1.92660  253.   RY ( 3) H  8
  235.  0.00009     2.20368  314.   RY ( 2) H 12
  236.  0.00009     2.12206  360.   RY ( 2) H 17
  237.  0.00009     2.31099  402.   RY ( 3) H 21
  238.  0.00008     1.88508  258.   RY ( 3) H  9
  239.  0.00009     2.34824  397.   RY ( 3) H 20
  240.  0.00008     1.36410  503.   RY ( 6) C 28
  241.  0.00008     1.77973  248.   RY ( 3) H  7
  242.  0.00008     2.34592  378.   RY (10) C 19
  243.  0.00008     2.33804  437.   RY ( 2) H 24
  244.  0.00008     2.26982  433.   RY ( 3) H 23
  245.  0.00008     2.10450  315.   RY ( 3) H 12
  246.  0.00007     2.86299  202.   RY ( 9) C  5
  247.  0.00008     2.08809  366.   RY ( 3) H 18
  248.  0.00007     2.25946  504.   RY ( 7) C 28
  249.  0.00007     1.66995  476.   RY ( 5) O 27
  250.  0.00007     0.87344  526.   RY ( 3) N 29
  251.  0.00007     3.26848  101.   RY (12) C  1
  252.  0.00007     2.19695  125.   RY (10) C  2
  253.  0.00007     2.15795  325.   RY ( 3) H 14
  254.  0.00007     1.73782  505.   RY ( 8) C 28
  255.  0.00007     2.57763  259.   RY ( 4) H  9
  256.  0.00007     2.36911  438.   RY ( 3) H 24
  257.  0.00007     3.00142  448.   RY ( 8) C 25
  258.  0.00006     1.51930  175.   RY ( 8) C  4
  259.  0.00006     1.89348  449.   RY ( 9) C 25
  260.  0.00006     2.57204  249.   RY ( 4) H  7
  261.  0.00006     2.96061  271.   RY (11) N 10
  262.  0.00006     2.12863  320.   RY ( 3) H 13
  263.  0.00006     1.73040  176.   RY ( 9) C  4
  264.  0.00006     3.79248  232.   RY (13) C  6
  265.  0.00006     2.11244  361.   RY ( 3) H 17
  266.  0.00006     2.11511  356.   RY ( 3) H 16
  267.  0.00005     3.84299  126.   RY (11) C  2
  268.  0.00005     1.68059  294.   RY ( 8) C 11
  269.  0.00006     2.08584  470.   RY ( 4) H 26
  270.  0.00005     2.10375  321.   RY ( 4) H 13
  271.  0.00005     2.15610  362.   RY ( 4) H 17
  272.  0.00005     2.24734  367.   RY ( 4) H 18
  273.  0.00005     2.89675  102.   RY (13) C  1
  274.  0.00005     2.51478  254.   RY ( 4) H  8
  275.  0.00005     1.57652  335.   RY ( 8) C 15
  276.  0.00005     2.32073  414.   RY (10) C 22
  277.  0.00005     2.91892  379.   RY (11) C 19
  278.  0.00005     2.80798  233.   RY (14) C  6
  279.  0.00004     2.52554  103.   RY (14) C  1
  280.  0.00004     3.52747  177.   RY (10) C  4
  281.  0.00004     2.35697  439.   RY ( 4) H 24
  282.  0.00004     2.18154  316.   RY ( 4) H 12
  283.  0.00004     2.57107  380.   RY (12) C 19
  284.  0.00004     2.50459  403.   RY ( 4) H 21
  285.  0.00004     2.80335  234.   RY (15) C  6
  286.  0.00004     2.16984  203.   RY (10) C  5
  287.  0.00004     1.68511  336.   RY ( 9) C 15
  288.  0.00004     2.21147  398.   RY ( 4) H 20
  289.  0.00003     2.21449  357.   RY ( 4) H 16
  290.  0.00003     2.18443  326.   RY ( 4) H 14
  291.  0.00003     2.34065  415.   RY (11) C 22
  292.  0.00003     2.07950  127.   RY (12) C  2
  293.  0.00003     2.03283  204.   RY (11) C  5
  294.  0.00003     4.43431  272.   RY (12) N 10
  295.  0.00003     2.64908  450.   RY (10) C 25
  296.  0.00003     3.09784  273.   RY (13) N 10
  297.  0.00003     2.13771  477.   RY ( 6) O 27
  298.  0.00002     3.20253  104.   RY (15) C  1
  299.  0.00002     3.28962  153.   RY (12) C  3
  300.  0.00003     2.30496  434.   RY ( 4) H 23
  301.  0.00003     1.81628  451.   RY (11) C 25
  302.  0.00002     4.38785  274.   RY (14) N 10
  303.  0.00002     2.54776  295.   RY ( 9) C 11
  304.  0.00002     2.07021  337.   RY (10) C 15
  305.  0.00002     2.56250  416.   RY (12) C 22
  306.  0.00002     1.34037  478.   RY ( 7) O 27
  307.  0.00002     3.03850  381.   RY (13) C 19
  308.  0.00002     3.22252  506.   RY ( 9) C 28
  309.  0.00002     3.14610  235.   RY (16) C  6
  310.  0.00002     2.15014  296.   RY (10) C 11
  311.  0.00002     2.95717  105.   RY (16) C  1
  312.  0.00002     2.06606  128.   RY (13) C  2
  313.  0.00002     2.92430  178.   RY (11) C  4
  314.  0.00002     2.48674  205.   RY (12) C  5
  315.  0.00002     2.08073  297.   RY (11) C 11
  316.  0.00002     2.47120  179.   RY (12) C  4
  317.  0.00002     3.50126  236.   RY (17) C  6
  318.  0.00002     3.04820  507.   RY (10) C 28
  319.  0.00002     1.47278  527.   RY ( 4) N 29
  320.  0.00001     2.87370  106.   RY (17) C  1
  321.  0.00001     3.37507  338.   RY (11) C 15
  322.  0.00001     2.23380  382.   RY (14) C 19
  323.  0.00002     2.33770  452.   RY (12) C 25
  324.  0.00001     3.29398  129.   RY (14) C  2
  325.  0.00001     2.91443  471.   RY ( 5) H 26
  326.  0.00001     3.91217  154.   RY (13) C  3
  327.  0.00001     2.32247  206.   RY (13) C  5
  328.  0.00001     2.68322  130.   RY (15) C  2
  329.  0.00001     2.87836  250.   RY ( 5) H  7
  330.  0.00001     2.87520  260.   RY ( 5) H  9
  331.  0.00001     2.52712  180.   RY (13) C  4
  332.  0.00001     3.83152  207.   RY (14) C  5
  333.  0.00001     4.37161  275.   RY (15) N 10
  334.  0.00001     2.10333  417.   RY (13) C 22
  335.  0.00001     3.07913  107.   RY (18) C  1
  336.  0.00001     3.36148  155.   RY (14) C  3
  337.  0.00001     3.65056  237.   RY (18) C  6
  338.  0.00001     2.90956  255.   RY ( 5) H  8
  339.  0.00001     2.78259  383.   RY (15) C 19
  340.  0.00001     2.41523  404.   RY ( 5) H 21
  341.  0.00001     3.96208  508.   RY (11) C 28
  342.  0.00001     1.26417  528.   RY ( 5) N 29
  343.  0.00001     3.19383  108.   RY (19) C  1
  344.  0.00001     2.89270  109.   RY (20) C  1
  345.  0.00000     3.72762  131.   RY (16) C  2
  346.  0.00001     4.47533  156.   RY (15) C  3
  347.  0.00001     3.00958  181.   RY (14) C  4
  348.  0.00001     2.81450  208.   RY (15) C  5
  349.  0.00001     3.61167  238.   RY (19) C  6
  350.  0.00001     4.40690  276.   RY (16) N 10
  351.  0.00001     1.99174  298.   RY (12) C 11
  352.  0.00001     2.67612  327.   RY ( 5) H 14
  353.  0.00001     5.58827  277.   RY (17) N 10
  354.  0.00001     1.88548  339.   RY (12) C 15
  355.  0.00000     3.61121  132.   RY (17) C  2
  356.  0.00000     3.49009  110.   RY (21) C  1
  357.  0.00000     3.87704  111.   RY (22) C  1
  358.  0.00000     5.61254  112.   RY (23) C  1
  359.  0.00000     3.31084  113.   RY (24) C  1
  360.  0.00000     3.59934  133.   RY (18) C  2
  361.  0.00000     3.18820  134.   RY (19) C  2
  362.  0.00000     2.08384  157.   RY (16) C  3
  363.  0.00000     3.40343  158.   RY (17) C  3
  364.  0.00000     3.65669  114.   RY (25) C  1
  365.  0.00000    15.73939  115.   RY (26) C  1
  366.  0.00000     3.51682  135.   RY (20) C  2
  367.  0.00000    13.90585  136.   RY (21) C  2
  368.  0.00000     3.67228  137.   RY (22) C  2
  369.  0.00000     3.02577  138.   RY (23) C  2
  370.  0.00000     3.18000  139.   RY (24) C  2
  371.  0.00000     3.40035  140.   RY (25) C  2
  372.  0.00000     3.30971  141.   RY (26) C  2
  373.  0.00000     4.39949  159.   RY (18) C  3
  374.  0.00000     7.83758  160.   RY (19) C  3
  375.  0.00000     3.09796  161.   RY (20) C  3
  376.  0.00000     2.75705  182.   RY (15) C  4
  377.  0.00000     6.36656  162.   RY (21) C  3
  378.  0.00000     3.31250  163.   RY (22) C  3
  379.  0.00000     3.50904  164.   RY (23) C  3
  380.  0.00000     4.37509  165.   RY (24) C  3
  381.  0.00000     3.30029  166.   RY (25) C  3
  382.  0.00000     4.19565  167.   RY (26) C  3
  383.  0.00000     2.79402  183.   RY (16) C  4
  384.  0.00000     3.67105  184.   RY (17) C  4
  385.  0.00000     4.94468  185.   RY (18) C  4
  386.  0.00000     2.45305  209.   RY (16) C  5
  387.  0.00000     3.76742  210.   RY (17) C  5
  388.  0.00000     5.05438  211.   RY (18) C  5
  389.  0.00000     3.27689  239.   RY (20) C  6
  390.  0.00000     2.21588  299.   RY (13) C 11
  391.  0.00000     2.56506  322.   RY ( 5) H 13
  392.  0.00001     2.56020  340.   RY (13) C 15
  393.  0.00000     4.45649  278.   RY (18) N 10
  394.  0.00000     2.64686  317.   RY ( 5) H 12
  395.  0.00000     2.92704  341.   RY (14) C 15
  396.  0.00000     2.56628  358.   RY ( 5) H 16
  397.  0.00001     2.60072  363.   RY ( 5) H 17
  398.  0.00001     2.26806  384.   RY (16) C 19
  399.  0.00001     2.90719  385.   RY (17) C 19
  400.  0.00001     2.37583  399.   RY ( 5) H 20
  401.  0.00001     3.25776  418.   RY (14) C 22
  402.  0.00001     2.34204  435.   RY ( 5) H 23
  403.  0.00001     2.47880  440.   RY ( 5) H 24
  404.  0.00001     2.36801  453.   RY (13) C 25
  405.  0.00001     2.34397  454.   RY (14) C 25
  406.  0.00001     3.77328  509.   RY (12) C 28
  407.  0.00001     2.93243  529.   RY ( 6) N 29
  408.  0.00000     4.96739  186.   RY (19) C  4
  409.  0.00000     4.17774  187.   RY (20) C  4
  410.  0.00000     2.70345  188.   RY (21) C  4
  411.  0.00000     3.30886  189.   RY (22) C  4
  412.  0.00000     2.73082  190.   RY (23) C  4
  413.  0.00000    11.96256  191.   RY (24) C  4
  414.  0.00000     4.07560  192.   RY (25) C  4
  415.  0.00000     4.35242  193.   RY (26) C  4
  416.  0.00000     3.23392  212.   RY (19) C  5
  417.  0.00000     9.75139  213.   RY (20) C  5
  418.  0.00000     2.92063  214.   RY (21) C  5
  419.  0.00000     3.99335  215.   RY (22) C  5
  420.  0.00000     3.40736  216.   RY (23) C  5
  421.  0.00000     2.84154  217.   RY (24) C  5
  422.  0.00000     3.09302  218.   RY (25) C  5
  423.  0.00000     9.81640  219.   RY (26) C  5
  424.  0.00000    15.38962  240.   RY (21) C  6
  425.  0.00000     3.54523  241.   RY (22) C  6
  426.  0.00000     5.49640  242.   RY (23) C  6
  427.  0.00000     2.97198  243.   RY (24) C  6
  428.  0.00000     3.17884  244.   RY (25) C  6
  429.  0.00000     4.64121  279.   RY (19) N 10
  430.  0.00000     4.23179  280.   RY (20) N 10
  431.  0.00000     2.57878  368.   RY ( 5) H 18
  432.  0.00000     2.70573  386.   RY (18) C 19
  433.  0.00000     2.78443  419.   RY (15) C 22
  434.  0.00000     2.32828  455.   RY (15) C 25
  435.  0.00000     3.51904  479.   RY ( 8) O 27
  436.  0.00000     2.50811  480.   RY ( 9) O 27
  437.  0.00000     3.35641  510.   RY (13) C 28
  438.  0.00000     5.91072  245.   RY (26) C  6
  439.  0.00000    21.19591  281.   RY (21) N 10
  440.  0.00000     4.51220  282.   RY (22) N 10
  441.  0.00000     4.32403  283.   RY (23) N 10
  442.  0.00000     2.77393  300.   RY (14) C 11
  443.  0.00000     5.33417  284.   RY (24) N 10
  444.  0.00000     7.20428  285.   RY (25) N 10
  445.  0.00000     5.00453  286.   RY (26) N 10
  446.  0.00000    18.67858  301.   RY (15) C 11
  447.  0.00000     3.65860  302.   RY (16) C 11
  448.  0.00000     2.30905  303.   RY (17) C 11
  449.  0.00000     3.30897  304.   RY (18) C 11
  450.  0.00000     3.66021  305.   RY (19) C 11
  451.  0.00000     2.68976  306.   RY (20) C 11
  452.  0.00000     2.91887  307.   RY (21) C 11
  453.  0.00000     3.38699  308.   RY (22) C 11
  454.  0.00000     3.21102  309.   RY (23) C 11
  455.  0.00000     3.43538  310.   RY (24) C 11
  456.  0.00000     2.89978  342.   RY (15) C 15
  457.  0.00000     2.76899  343.   RY (16) C 15
  458.  0.00000     2.98074  344.   RY (17) C 15
  459.  0.00000     3.54727  311.   RY (25) C 11
  460.  0.00000     5.17970  312.   RY (26) C 11
  461.  0.00000     6.73921  345.   RY (18) C 15
  462.  0.00000    16.65081  346.   RY (19) C 15
  463.  0.00000     3.64883  347.   RY (20) C 15
  464.  0.00000     3.94016  348.   RY (21) C 15
  465.  0.00000     2.84003  349.   RY (22) C 15
  466.  0.00000     3.32760  387.   RY (19) C 19
  467.  0.00000     3.66674  350.   RY (23) C 15
  468.  0.00000     2.65681  351.   RY (24) C 15
  469.  0.00000     3.34341  352.   RY (25) C 15
  470.  0.00000     3.71007  353.   RY (26) C 15
  471.  0.00000    19.50213  388.   RY (20) C 19
  472.  0.00000     3.54092  389.   RY (21) C 19
  473.  0.00000     3.35664  390.   RY (22) C 19
  474.  0.00000     3.61308  391.   RY (23) C 19
  475.  0.00000     3.01441  420.   RY (16) C 22
  476.  0.00000     4.58150  392.   RY (24) C 19
  477.  0.00000     3.41089  393.   RY (25) C 19
  478.  0.00000     3.34576  394.   RY (26) C 19
  479.  0.00000     5.73175  421.   RY (17) C 22
  480.  0.00000     3.37527  422.   RY (18) C 22
  481.  0.00000     4.51279  423.   RY (19) C 22
  482.  0.00000    10.71990  424.   RY (20) C 22
  483.  0.00000     3.29569  425.   RY (21) C 22
  484.  0.00000     2.76753  426.   RY (22) C 22
  485.  0.00000     3.71766  427.   RY (23) C 22
  486.  0.00000     3.48140  428.   RY (24) C 22
  487.  0.00000     6.82372  429.   RY (25) C 22
  488.  0.00000     3.58017  430.   RY (26) C 22
  489.  0.00000     2.73467  456.   RY (16) C 25
  490.  0.00000     3.29982  457.   RY (17) C 25
  491.  0.00000     2.68440  458.   RY (18) C 25
  492.  0.00000     2.53756  459.   RY (19) C 25
  493.  0.00000     2.84615  460.   RY (20) C 25
  494.  0.00000     2.85666  481.   RY (10) O 27
  495.  0.00000     3.68077  511.   RY (14) C 28
  496.  0.00000     2.46589  530.   RY ( 7) N 29
  497.  0.00000    15.93329  461.   RY (21) C 25
  498.  0.00000     3.28425  462.   RY (22) C 25
  499.  0.00000     2.86174  463.   RY (23) C 25
  500.  0.00000     5.19752  464.   RY (24) C 25
  501.  0.00000     6.11828  465.   RY (25) C 25
  502.  0.00000     3.05286  466.   RY (26) C 25
  503.  0.00000     4.51398  482.   RY (11) O 27
  504.  0.00000     3.33019  483.   RY (12) O 27
  505.  0.00000     2.79712  484.   RY (13) O 27
  506.  0.00000     6.46002  485.   RY (14) O 27
  507.  0.00000    20.08164  486.   RY (15) O 27
  508.  0.00000    15.25333  487.   RY (16) O 27
  509.  0.00000     6.70934  488.   RY (17) O 27
  510.  0.00000     8.45931  489.   RY (18) O 27
  511.  0.00000     5.95798  490.   RY (19) O 27
  512.  0.00000     6.66733  491.   RY (20) O 27
  513.  0.00000     6.26593  492.   RY (21) O 27
  514.  0.00000    10.43521  512.   RY (15) C 28
  515.  0.00000     3.36894  513.   RY (16) C 28
  516.  0.00000     7.39591  493.   RY (22) O 27
  517.  0.00000     6.12253  494.   RY (23) O 27
  518.  0.00000     8.10201  495.   RY (24) O 27
  519.  0.00000     7.34941  496.   RY (25) O 27
  520.  0.00000     5.75469  497.   RY (26) O 27
  521.  0.00000     2.48890  514.   RY (17) C 28
  522.  0.00000     2.76101  515.   RY (18) C 28
  523.  0.00000     1.71345  516.   RY (19) C 28
  524.  0.00000     2.76245  517.   RY (20) C 28
  525.  0.00000     3.41017  531.   RY ( 8) N 29
  526.  0.00000     1.50798  532.   RY ( 9) N 29
  527.  0.00000     3.47145  533.   RY (10) N 29
  528.  0.00000     3.48772  518.   RY (21) C 28
  529.  0.00000     3.08593  519.   RY (22) C 28
  530.  0.00000     2.78246  520.   RY (23) C 28
  531.  0.00000     2.68218  521.   RY (24) C 28
  532.  0.00000     2.94349  522.   RY (25) C 28
  533.  0.00000     3.10310  523.   RY (26) C 28
  534.  0.00000     9.61081  534.   RY (11) N 29
  535.  0.00000    10.78105  535.   RY (12) N 29
  536.  0.00000    10.27880  536.   RY (13) N 29
  537.  0.00000     4.77846  537.   RY (14) N 29
  538.  0.00000     3.55182  538.   RY (15) N 29
  539.  0.00000     4.77893  539.   RY (16) N 29
  540.  0.00000     4.30148  540.   RY (17) N 29
  541.  0.00000     4.21663  541.   RY (18) N 29
  542.  0.00000     4.51379  542.   RY (19) N 29
  543.  0.00000     5.30608  543.   RY (20) N 29
  544.  0.00000     4.20536  544.   RY (21) N 29
  545.  0.00000     3.94523  545.   RY (22) N 29
  546.  0.00000     4.27048  546.   RY (23) N 29
  547.  0.00000     4.39486  547.   RY (24) N 29
  548.  0.00000     4.06039  548.   RY (25) N 29
  549.  0.00000     5.87162  549.   RY (26) N 29

 Maximum scratch memory used by NBO was 2678058 words
 Maximum scratch memory used by G09NBO was 1965706 words

 Read Unf file /scratch/aloke/Gau-22501.EUF:
 Label Gaussian matrix elements                                         IVers= 1 NLab= 2 Version=AM64L-G09RevD.01
 Title Energy Optimisation and Frequency calculation                   
 NAtoms=    29 NBasis=   549 NBsUse=   549 ICharg=     0 Multip=     1 NE=   108 Len12L=8 Len4L=8
 Label GAUSSIAN SCALARS                                                 NI= 1 NR= 1 NTot=       1 LenBuf=    2000 N=    1000       1       1       1       1
 Label ALPHA ORBITAL ENERGIES                                           NI= 0 NR= 1 NTot=     549 LenBuf=    4000 N=     549       0       0       0       0
 Label ALPHA MO COEFFICIENTS                                            NI= 0 NR= 1 NTot=  301401 LenBuf=    4000 N=     549     549       0       0       0
 Store file  524 Len=  301401.
 Label NPA CHARGES                                                      NI= 0 NR= 1 NTot=      29 LenBuf=    4000 N=      29       0       0       0       0
 Recovered energy= -650.669342049     dipole=      0.000000000000      0.000000000000      0.000000000000
 1\1\GINC-CN087\SP\RB3LYP\def2TZVP\C12H14N2O1\ALOKE\28-Oct-2021\0\\# b3
 lyp/def2tzvp empiricaldispersion=gd3 pop=nbo6read pop=saveNBOs int=(gr
 id=ultrafine) scf=(tight,maxcycle=300)\\Energy Optimisation and Freque
 ncy calculation\\0,1\C,0,-0.743277,-0.899037,0.248774\C,0,-1.995895,-1
 .511092,0.237584\C,0,-3.163154,-0.794562,0.000084\C,0,-3.086911,0.5693
 07,-0.24177\C,0,-1.851799,1.205508,-0.219021\C,0,-0.67888,0.492236,0.0
 36655\H,0,-2.053241,-2.581777,0.396562\H,0,-3.983995,1.14287,-0.438678
 \H,0,-1.803359,2.27202,-0.391428\N,0,0.593484,1.133471,0.07333\C,0,0.7
 64637,2.30031,-0.77724\H,0,0.259367,3.199559,-0.394483\H,0,1.83015,2.5
 26965,-0.846869\H,0,0.388223,2.090198,-1.778033\C,0,1.11103,1.368271,1
 .421071\H,0,0.611945,2.225266,1.895775\H,0,2.183733,1.555695,1.372805\
 H,0,0.953366,0.493596,2.046385\C,0,0.496596,-1.748481,0.395683\H,0,0.1
 82798,-2.785802,0.516002\H,0,1.068504,-1.496724,1.291422\C,0,1.454319,
 -1.647156,-0.813124\H,0,2.010474,-2.585908,-0.905579\H,0,0.892979,-1.5
 06338,-1.738407\C,0,2.500667,-0.564185,-0.666238\H,0,2.618906,0.120907
 ,-1.528332\O,0,3.245118,-0.491176,0.283092\C,0,-4.52328256,-1.51667504
 ,-0.01416557\N,0,-5.5359601,-2.05432102,-0.02477503\\Version=AM64L-G09
 RevD.01\State=1-A\HF=-650.669342\RMSD=4.865e-09\Dipole=1.0958577,1.117
 0967,-0.4713141\Quadrupole=-20.8618466,12.084455,8.7773917,-8.7970683,
 -3.0212732,-0.490229\PG=C01 [X(C12H14N2O1)]\\@


          EVOLUTION
 IN THE BEGINNING GOD MADE MAN.
 HE WORKED THE DIRT WITH HIS HANDS.
 THEN GOD DECIDED TO GIVE MAN SCIENCE,
 MAN SHOULD BE USEFUL (LIKE AN APPLIANCE.)
 BUT SOON MAN'S KNOWLEDGE GREW TOO GREAT,
 TO THE HEADING SCIENCE HE COULDN'T RELATE
 SO GOD SAID "LETS HAVE DIFFERENT FIELDS,
 WE'LL DIVIDE THEM UP, SEE WHAT IT YIELDS."
 ENTER PHYSICS, CHEMISTRY, BIO
 THEY SPRANG UP AROUND THE NILE.
 BUT CHEMISTRY SURPASSED THE REST
 FAR AND AWAY IT WAS THE BEST.
 EXPERIMENT WAS GOD'S DECREE
 EXPERIMENT DID CHEMISTS WITH LOTS OF GLEE
 BUT SOON THEIR TESTS BEGAN TO BOG,
 THEY FOUND THEMSELVES DEEP IN A FOG.
 "GIVE US SOME HELP" THEY CRIED TO GOD.
 GOD LOOKED AROUND, THEN GAVE THE NOD.
 ENTER EINSTEIN, HEISENBERG, BOHR,
 REACTION PATHS WERE CLEAR ONCE MORE.
 WITH THEORISTS GOD SEND DIRECTION
 AND THEN HE STOPPED, HE'D MADE PERFECTION.
          -- THOMAS A. HOLME, 1981
 Job cpu time:       0 days  0 hours 59 minutes 28.6 seconds.
 File lengths (MBytes):  RWF=    118 Int=      0 D2E=      0 Chk=     12 Scr=      1
 Normal termination of Gaussian 09 at Thu Oct 28 14:44:16 2021.
